
                                 *****************
                                 * O   R   C   A *
                                 *****************

                                            #,                                       
                                            ###                                      
                                            ####                                     
                                            #####                                    
                                            ######                                   
                                           ########,                                 
                                     ,,################,,,,,                         
                               ,,#################################,,                 
                          ,,##########################################,,             
                       ,#########################################, ''#####,          
                    ,#############################################,,   '####,        
                  ,##################################################,,,,####,       
                ,###########''''           ''''###############################       
              ,#####''   ,,,,##########,,,,          '''####'''          '####       
            ,##' ,,,,###########################,,,                        '##       
           ' ,,###''''                  '''############,,,                           
         ,,##''                                '''############,,,,        ,,,,,,###''
      ,#''                                            '''#######################'''  
     '                                                          ''''####''''         
             ,#######,   #######,   ,#######,      ##                                
            ,#'     '#,  ##    ##  ,#'     '#,    #''#        ######   ,####,        
            ##       ##  ##   ,#'  ##            #'  '#       #        #'  '#        
            ##       ##  #######   ##           ,######,      #####,   #    #        
            '#,     ,#'  ##    ##  '#,     ,#' ,#      #,         ##   #,  ,#        
             '#######'   ##     ##  '#######'  #'      '#     #####' # '####'        



                  #######################################################
                  #                        -***-                        #
                  #          Department of theory and spectroscopy      #
                  #    Directorship and core code : Frank Neese         #
                  #        Max Planck Institute fuer Kohlenforschung    #
                  #                Kaiser Wilhelm Platz 1               #
                  #                 D-45470 Muelheim/Ruhr               #
                  #                      Germany                        #
                  #                                                     #
                  #                  All rights reserved                #
                  #                        -***-                        #
                  #######################################################


                         Program Version 5.0.4 -  RELEASE  -


 With contributions from (in alphabetic order):
   Daniel Aravena         : Magnetic Suceptibility
   Michael Atanasov       : Ab Initio Ligand Field Theory (pilot matlab implementation)
   Alexander A. Auer      : GIAO ZORA, VPT2 properties, NMR spectrum
   Ute Becker             : Parallelization
   Giovanni Bistoni       : ED, misc. LED, open-shell LED, HFLD
   Martin Brehm           : Molecular dynamics
   Dmytro Bykov           : SCF Hessian
   Vijay G. Chilkuri      : MRCI spin determinant printing, contributions to CSF-ICE
   Dipayan Datta          : RHF DLPNO-CCSD density
   Achintya Kumar Dutta   : EOM-CC, STEOM-CC
   Dmitry Ganyushin       : Spin-Orbit,Spin-Spin,Magnetic field MRCI
   Miquel Garcia          : C-PCM and meta-GGA Hessian, CC/C-PCM, Gaussian charge scheme
   Yang Guo               : DLPNO-NEVPT2, F12-NEVPT2, CIM, IAO-localization
   Andreas Hansen         : Spin unrestricted coupled pair/coupled cluster methods
   Benjamin Helmich-Paris : MC-RPA, TRAH-SCF, COSX integrals
   Lee Huntington         : MR-EOM, pCC
   Robert Izsak           : Overlap fitted RIJCOSX, COSX-SCS-MP3, EOM
   Marcus Kettner         : VPT2
   Christian Kollmar      : KDIIS, OOCD, Brueckner-CCSD(T), CCSD density, CASPT2, CASPT2-K
   Simone Kossmann        : Meta GGA functionals, TD-DFT gradient, OOMP2, MP2 Hessian
   Martin Krupicka        : Initial AUTO-CI
   Lucas Lang             : DCDCAS
   Marvin Lechner         : AUTO-CI (C++ implementation), FIC-MRCC
   Dagmar Lenk            : GEPOL surface, SMD
   Dimitrios Liakos       : Extrapolation schemes; Compound Job, initial MDCI parallelization
   Dimitrios Manganas     : Further ROCIS development; embedding schemes
   Dimitrios Pantazis     : SARC Basis sets
   Anastasios Papadopoulos: AUTO-CI, single reference methods and gradients
   Taras Petrenko         : DFT Hessian,TD-DFT gradient, ASA, ECA, R-Raman, ABS, FL, XAS/XES, NRVS
   Peter Pinski           : DLPNO-MP2, DLPNO-MP2 Gradient
   Christoph Reimann      : Effective Core Potentials
   Marius Retegan         : Local ZFS, SOC
   Christoph Riplinger    : Optimizer, TS searches, QM/MM, DLPNO-CCSD(T), (RO)-DLPNO pert. Triples
   Tobias Risthaus        : Range-separated hybrids, TD-DFT gradient, RPA, STAB
   Michael Roemelt        : Original ROCIS implementation
   Masaaki Saitow         : Open-shell DLPNO-CCSD energy and density
   Barbara Sandhoefer     : DKH picture change effects
   Avijit Sen             : IP-ROCIS
   Kantharuban Sivalingam : CASSCF convergence, NEVPT2, FIC-MRCI
   Bernardo de Souza      : ESD, SOC TD-DFT
   Georgi Stoychev        : AutoAux, RI-MP2 NMR, DLPNO-MP2 response
   Willem Van den Heuvel  : Paramagnetic NMR
   Boris Wezisla          : Elementary symmetry handling
   Frank Wennmohs         : Technical directorship


 We gratefully acknowledge several colleagues who have allowed us to
 interface, adapt or use parts of their codes:
   Stefan Grimme, W. Hujo, H. Kruse, P. Pracht,  : VdW corrections, initial TS optimization,
                  C. Bannwarth, S. Ehlert          DFT functionals, gCP, sTDA/sTD-DF
   Ed Valeev, F. Pavosevic, A. Kumar             : LibInt (2-el integral package), F12 methods
   Garnet Chan, S. Sharma, J. Yang, R. Olivares  : DMRG
   Ulf Ekstrom                                   : XCFun DFT Library
   Mihaly Kallay                                 : mrcc  (arbitrary order and MRCC methods)
   Jiri Pittner, Ondrej Demel                    : Mk-CCSD
   Frank Weinhold                                : gennbo (NPA and NBO analysis)
   Christopher J. Cramer and Donald G. Truhlar   : smd solvation model
   Lars Goerigk                                  : TD-DFT with DH, B97 family of functionals
   V. Asgeirsson, H. Jonsson                     : NEB implementation
   FAccTs GmbH                                   : IRC, NEB, NEB-TS, DLPNO-Multilevel, CI-OPT
                                                   MM, QMMM, 2- and 3-layer-ONIOM, Crystal-QMMM,
                                                   LR-CPCM, SF, NACMEs, symmetry and pop. for TD-DFT,
                                                   nearIR, NL-DFT gradient (VV10), updates on ESD,
                                                   ML-optimized integration grids
   S Lehtola, MJT Oliveira, MAL Marques          : LibXC Library
   Liviu Ungur et al                             : ANISO software


 Your calculation uses the libint2 library for the computation of 2-el integrals
 For citations please refer to: http://libint.valeyev.net

 Your ORCA version has been built with support for libXC version: 5.1.0
 For citations please refer to: https://tddft.org/programs/libxc/

 This ORCA versions uses:
   CBLAS   interface :  Fast vector & matrix operations
   LAPACKE interface :  Fast linear algebra routines
   SCALAPACK package :  Parallel linear algebra routines
   Shared memory     :  Shared parallel matrices
   BLAS/LAPACK       :  OpenBLAS 0.3.15  USE64BITINT DYNAMIC_ARCH NO_AFFINITY SkylakeX SINGLE_THREADED
        Core in use  :  SkylakeX
   Copyright (c) 2011-2014, The OpenBLAS Project




***************************************
The coordinates will be read from file: opt_EPRII.xyz
***************************************


XCFun DFT library Copyright 2009-2010 Ulf Ekstrom and contributors.
See http://admol.org/xcfun for more information.
This is free software; see the source code for copying conditions.
There is ABSOLUTELY NO WARRANTY; not even for MERCHANTABILITY or FITNESS FOR A PARTICULAR PURPOSE.
For details see the documentation.
Scientific users of this library should cite U. Ekstrom, L. Visscher, R. Bast, A. J. Thorvaldsen and K. Ruud;
J.Chem.Theor.Comp. 2010, DOI: 10.1021/ct100117s
XCFun Version 0.99 

================================================================================

----- Orbital basis set information -----
Your calculation utilizes the basis: def2-TZVP
   F. Weigend and R. Ahlrichs, Phys. Chem. Chem. Phys. 7, 3297 (2005).

----- AuxJ basis set information -----
Your calculation utilizes the auxiliary basis: def2/J
   F. Weigend, Phys. Chem. Chem. Phys. 8, 1057 (2006).

================================================================================
                                        WARNINGS
                       Please study these warnings very carefully!
================================================================================


WARNING: your system is open-shell and RHF/RKS was chosen
  ===> : WILL SWITCH to UHF/UKS


WARNING: Geometry Optimization
  ===> : Switching off AutoStart
         For restart on a previous wavefunction, please use MOREAD

WARNING: Minnesota functionals are quite sensitive to the integration grid.
         see SE Wheeler, KN Houk, JCTC 2010, 6, 395,
             N Mardirossian, M Head-Gordon, JCTC 2016, 12, 4303.
         DEFGRID3 seems to be a minimum grid for reliable results with these functionals!
  ===> : Please increase the integration grid!


INFO   : the flag for use of the SHARK integral package has been found!

================================================================================
                                       INPUT FILE
================================================================================
NAME = freq.inp
|  1> ! M062X def2-TZVP OPT FREQ
|  2> %pal nprocs 16 end
|  3> *XYZFile 1 2 opt_EPRII.xyz
|  4> 
|  5>                          ****END OF INPUT****
================================================================================

                       *****************************
                       * Geometry Optimization Run *
                       *****************************

Geometry optimization settings:
Update method            Update   .... BFGS
Choice of coordinates    CoordSys .... Z-matrix Internals
Initial Hessian          InHess   .... Almoef's Model

Convergence Tolerances:
Energy Change            TolE     ....  5.0000e-06 Eh
Max. Gradient            TolMAXG  ....  3.0000e-04 Eh/bohr
RMS Gradient             TolRMSG  ....  1.0000e-04 Eh/bohr
Max. Displacement        TolMAXD  ....  4.0000e-03 bohr
RMS Displacement         TolRMSD  ....  2.0000e-03 bohr
Strict Convergence                ....  False
------------------------------------------------------------------------------
                        ORCA OPTIMIZATION COORDINATE SETUP
------------------------------------------------------------------------------

The optimization will be done in new redundant internal coordinates
Making redundant internal coordinates   ...  (new redundants) done
Evaluating the initial hessian          ...  (Almloef) done
Evaluating the coordinates              ...  done
Calculating the B-matrix                .... done
Calculating the G-matrix                .... done
Diagonalizing the G-matrix              .... done
The first mode is                       ....   42
The number of degrees of freedom        ....   57

    -----------------------------------------------------------------
                    Redundant Internal Coordinates


    -----------------------------------------------------------------
         Definition                    Initial Value    Approx d2E/dq
    -----------------------------------------------------------------
      1. B(C   1,N   0)                  1.4876         0.390944   
      2. B(C   2,N   0)                  1.3347         0.685656   
      3. B(C   3,C   2)                  1.4506         0.500077   
      4. B(O   4,C   3)                  1.2586         0.906866   
      5. B(C   5,C   3)                  1.4615         0.480465   
      6. B(C   6,C   5)                  1.4949         0.424933   
      7. B(C   7,C   5)                  1.4167         0.566337   
      8. B(C   8,C   7)                  1.5123         0.398636   
      9. B(C   9,C   7)                  1.3972         0.608489   
     10. B(C   9,N   0)                  1.3752         0.590837   
     11. B(H  10,C   1)                  1.0916         0.357975   
     12. B(H  11,C   1)                  1.0914         0.358197   
     13. B(H  12,C   1)                  1.0888         0.361658   
     14. B(H  13,C   2)                  1.0848         0.367092   
     15. B(H  14,C   6)                  1.0970         0.350914   
     16. B(H  15,C   6)                  1.0976         0.350159   
     17. B(H  16,C   6)                  1.0891         0.361284   
     18. B(H  17,C   8)                  1.0947         0.353963   
     19. B(H  18,C   8)                  1.0916         0.357948   
     20. B(H  19,C   8)                  1.0946         0.354014   
     21. B(H  20,C   9)                  1.0846         0.367351   
     22. A(C   2,N   0,C   9)          120.5638         0.432466   
     23. A(C   1,N   0,C   9)          118.4771         0.391454   
     24. A(C   1,N   0,C   2)          120.9589         0.401816   
     25. A(N   0,C   1,H  12)          109.0720         0.325026   
     26. A(N   0,C   1,H  11)          109.0324         0.324513   
     27. A(H  10,C   1,H  11)          110.1805         0.290328   
     28. A(H  10,C   1,H  12)          109.7816         0.290766   
     29. A(N   0,C   1,H  10)          109.0345         0.324480   
     30. A(H  11,C   1,H  12)          109.7159         0.290795   
     31. A(C   3,C   2,H  13)          119.7885         0.341473   
     32. A(N   0,C   2,H  13)          119.1111         0.357937   
     33. A(N   0,C   2,C   3)          121.1004         0.422487   
     34. A(O   4,C   3,C   5)          123.2618         0.441072   
     35. A(C   2,C   3,O   4)          118.5697         0.444275   
     36. A(C   2,C   3,C   5)          118.1685         0.399249   
     37. A(C   3,C   5,C   7)          118.1958         0.408110   
     38. A(C   3,C   5,C   6)          119.1054         0.388023   
     39. A(C   6,C   5,C   7)          122.6988         0.399362   
     40. A(H  15,C   6,H  16)          109.2254         0.289714   
     41. A(C   5,C   6,H  16)          111.0169         0.331461   
     42. A(H  14,C   6,H  15)          106.4402         0.288395   
     43. A(C   5,C   6,H  15)          110.1942         0.329750   
     44. A(H  14,C   6,H  16)          109.4647         0.289812   
     45. A(C   5,C   6,H  14)          110.3860         0.329868   
     46. A(C   8,C   7,C   9)          119.2595         0.399917   
     47. A(C   5,C   7,C   9)          118.9284         0.425636   
     48. A(C   5,C   7,C   8)          121.8121         0.394906   
     49. A(H  17,C   8,H  18)          108.2055         0.289783   
     50. A(C   7,C   8,H  18)          111.6164         0.327479   
     51. A(C   7,C   8,H  17)          110.6269         0.326875   
     52. A(H  18,C   8,H  19)          108.2160         0.289790   
     53. A(H  17,C   8,H  19)          107.3998         0.289282   
     54. A(C   7,C   8,H  19)          110.6317         0.326883   
     55. A(N   0,C   9,C   7)          123.0430         0.426082   
     56. A(C   7,C   9,H  20)          121.7815         0.352980   
     57. A(N   0,C   9,H  20)          115.1755         0.349069   
     58. D(H  11,C   1,N   0,C   2)   -121.5422         0.013063   
     59. D(H  10,C   1,N   0,C   2)    118.1232         0.013063   
     60. D(H  12,C   1,N   0,C   2)     -1.7500         0.013063   
     61. D(H  12,C   1,N   0,C   9)    178.4127         0.013063   
     62. D(H  11,C   1,N   0,C   9)     58.6205         0.013063   
     63. D(H  10,C   1,N   0,C   9)    -61.7140         0.013063   
     64. D(H  13,C   2,N   0,C   9)   -179.9982         0.038745   
     65. D(C   3,C   2,N   0,C   1)   -179.8464         0.038745   
     66. D(H  13,C   2,N   0,C   1)      0.1680         0.038745   
     67. D(C   3,C   2,N   0,C   9)     -0.0126         0.038745   
     68. D(C   5,C   3,C   2,H  13)    179.9883         0.017034   
     69. D(C   5,C   3,C   2,N   0)      0.0028         0.017034   
     70. D(O   4,C   3,C   2,H  13)      0.0057         0.017034   
     71. D(O   4,C   3,C   2,N   0)   -179.9799         0.017034   
     72. D(C   6,C   5,C   3,C   2)    179.9363         0.015717   
     73. D(C   7,C   5,C   3,O   4)    179.9887         0.015717   
     74. D(C   7,C   5,C   3,C   2)      0.0069         0.015717   
     75. D(C   6,C   5,C   3,O   4)     -0.0819         0.015717   
     76. D(H  16,C   6,C   5,C   7)   -178.7072         0.013343   
     77. D(H  16,C   6,C   5,C   3)      1.3668         0.013343   
     78. D(H  15,C   6,C   5,C   7)     60.1501         0.013343   
     79. D(H  14,C   6,C   5,C   7)    -57.1329         0.013343   
     80. D(H  14,C   6,C   5,C   3)    122.9410         0.013343   
     81. D(H  15,C   6,C   5,C   3)   -119.7760         0.013343   
     82. D(C   9,C   7,C   5,C   6)   -179.9335         0.021990   
     83. D(C   9,C   7,C   5,C   3)     -0.0068         0.021990   
     84. D(C   8,C   7,C   5,C   6)      0.0759         0.021990   
     85. D(C   8,C   7,C   5,C   3)   -179.9974         0.021990   
     86. D(H  18,C   8,C   7,C   5)   -179.8686         0.011797   
     87. D(H  17,C   8,C   7,C   9)   -120.4057         0.011797   
     88. D(H  17,C   8,C   7,C   5)     59.5849         0.011797   
     89. D(H  19,C   8,C   7,C   9)    120.7038         0.011797   
     90. D(H  19,C   8,C   7,C   5)    -59.3057         0.011797   
     91. D(H  18,C   8,C   7,C   9)      0.1408         0.011797   
     92. D(H  20,C   9,C   7,C   8)      0.0014         0.025564   
     93. D(H  20,C   9,C   7,C   5)   -179.9895         0.025564   
     94. D(N   0,C   9,C   7,C   8)    179.9880         0.025564   
     95. D(N   0,C   9,C   7,C   5)     -0.0028         0.025564   
     96. D(H  20,C   9,N   0,C   2)   -179.9996         0.028068   
     97. D(H  20,C   9,N   0,C   1)     -0.1617         0.028068   
     98. D(C   7,C   9,N   0,C   2)      0.0129         0.028068   
     99. D(C   7,C   9,N   0,C   1)    179.8508         0.028068   
    -----------------------------------------------------------------

Number of atoms                         .... 21
Number of degrees of freedom            .... 99

         *************************************************************
         *                GEOMETRY OPTIMIZATION CYCLE   1            *
         *************************************************************
---------------------------------
CARTESIAN COORDINATES (ANGSTROEM)
---------------------------------
  N     -1.673229    0.012208   -0.019092
  C     -3.159410   -0.049754   -0.040751
  C     -1.035013    1.184362   -0.006610
  C      0.414076    1.248375    0.011188
  O      0.966500    2.379181    0.022853
  C      1.160193   -0.008319    0.015054
  C      2.654456    0.033227    0.031854
  C      0.428378   -1.221335    0.001066
  C      1.116890   -2.567837    0.003912
  C     -0.967713   -1.168234   -0.015605
  H     -3.481645   -0.548050   -0.956984
  H     -3.505197   -0.606301    0.832137
  H     -3.558176    0.963021   -0.012274
  H     -1.614949    2.101084   -0.009670
  H      3.042374   -0.518165    0.897284
  H      3.057389   -0.464459   -0.859620
  H      3.016327    1.059961    0.063772
  H      1.743395   -2.678726    0.894708
  H      0.396507   -3.387896   -0.010634
  H      1.768823   -2.669535   -0.869516
  H     -1.573475   -2.067807   -0.026572

----------------------------
CARTESIAN COORDINATES (A.U.)
----------------------------
  NO LB      ZA    FRAG     MASS         X           Y           Z
   0 N     7.0000    0    14.007   -3.161945    0.023070   -0.036080
   1 C     6.0000    0    12.011   -5.970419   -0.094022   -0.077009
   2 C     6.0000    0    12.011   -1.955892    2.238119   -0.012491
   3 C     6.0000    0    12.011    0.782489    2.359087    0.021142
   4 O     8.0000    0    15.999    1.826420    4.496001    0.043186
   5 C     6.0000    0    12.011    2.192447   -0.015721    0.028448
   6 C     6.0000    0    12.011    5.016196    0.062789    0.060195
   7 C     6.0000    0    12.011    0.809516   -2.307988    0.002014
   8 C     6.0000    0    12.011    2.110616   -4.852509    0.007393
   9 C     6.0000    0    12.011   -1.828712   -2.207643   -0.029489
  10 H     1.0000    0     1.008   -6.579355   -1.035664   -1.808437
  11 H     1.0000    0     1.008   -6.623862   -1.145743    1.572511
  12 H     1.0000    0     1.008   -6.723978    1.819845   -0.023194
  13 H     1.0000    0     1.008   -3.051811    3.970474   -0.018274
  14 H     1.0000    0     1.008    5.749253   -0.979190    1.695622
  15 H     1.0000    0     1.008    5.777628   -0.877699   -1.624446
  16 H     1.0000    0     1.008    5.700032    2.003036    0.120512
  17 H     1.0000    0     1.008    3.294539   -5.062059    1.690753
  18 H     1.0000    0     1.008    0.749289   -6.402195   -0.020095
  19 H     1.0000    0     1.008    3.342592   -5.044689   -1.643148
  20 H     1.0000    0     1.008   -2.973437   -3.907590   -0.050214

--------------------------------
INTERNAL COORDINATES (ANGSTROEM)
--------------------------------
 N      0   0   0     0.000000000000     0.00000000     0.00000000
 C      1   0   0     1.487629136728     0.00000000     0.00000000
 C      1   2   0     1.334697996929   120.95886145     0.00000000
 C      3   1   2     1.450611173984   121.10044541   180.15359050
 O      4   3   1     1.258583008489   118.56967216   180.02014993
 C      4   3   1     1.461501712568   118.16849395     0.00000000
 C      6   4   3     1.494935467442   119.10539701   179.93625947
 C      6   4   3     1.416741053340   118.19580588     0.00000000
 C      8   6   4     1.512325076623   121.81205864   180.00259104
 C      1   2   3     1.375212799054   118.47711779   180.16276375
 H      2   1   3     1.091611279812   109.03454505   118.12321394
 H      2   1   3     1.091442441748   109.03243989   238.45778225
 H      2   1   3     1.088824482439   109.07195266   358.24995045
 H      3   1   2     1.084764982231   119.11106659     0.16796399
 H      7   6   4     1.097033701074   110.38601275   122.94100047
 H      7   6   4     1.097620162002   110.19420516   240.22403188
 H      7   6   4     1.089106289643   111.01690310     1.36677260
 H      9   8   6     1.094678869693   110.62688961    59.58488618
 H      9   8   6     1.091631619288   111.61638867   180.13135259
 H      9   8   6     1.094640034539   110.63167087   300.69431862
 H     10   1   2     1.084573515386   115.17550179   359.83827822

---------------------------
INTERNAL COORDINATES (A.U.)
---------------------------
 N      0   0   0     0.000000000000     0.00000000     0.00000000
 C      1   0   0     2.811211657257     0.00000000     0.00000000
 C      1   2   0     2.522213685689   120.95886145     0.00000000
 C      3   1   2     2.741257845636   121.10044541   180.15359050
 O      4   3   1     2.378377202851   118.56967216   180.02014993
 C      4   3   1     2.761837981010   118.16849395     0.00000000
 C      6   4   3     2.825018621350   119.10539701   179.93625947
 C      6   4   3     2.677252593497   118.19580588     0.00000000
 C      8   6   4     2.857880220279   121.81205864   180.00259104
 C      1   2   3     2.598775566075   118.47711779   180.16276375
 H      2   1   3     2.062846363543   109.03454505   118.12321394
 H      2   1   3     2.062527305841   109.03243989   238.45778225
 H      2   1   3     2.057580079719   109.07195266   358.24995045
 H      3   1   2     2.049908736084   119.11106659     0.16796399
 H      7   6   4     2.073093254712   110.38601275   122.94100047
 H      7   6   4     2.074201505253   110.19420516   240.22403188
 H      7   6   4     2.058112618157   111.01690310     1.36677260
 H      9   8   6     2.068643268310   110.62688961    59.58488618
 H      9   8   6     2.062884799583   111.61638867   180.13135259
 H      9   8   6     2.068569880504   110.63167087   300.69431862
 H     10   1   2     2.049546916183   115.17550179   359.83827822

---------------------
BASIS SET INFORMATION
---------------------
There are 4 groups of distinct atoms

 Group   1 Type N   : 11s6p2d1f contracted to 5s3p2d1f pattern {62111/411/11/1}
 Group   2 Type C   : 11s6p2d1f contracted to 5s3p2d1f pattern {62111/411/11/1}
 Group   3 Type O   : 11s6p2d1f contracted to 5s3p2d1f pattern {62111/411/11/1}
 Group   4 Type H   : 5s1p contracted to 3s1p pattern {311/1}

Atom   0N    basis set group =>   1
Atom   1C    basis set group =>   2
Atom   2C    basis set group =>   2
Atom   3C    basis set group =>   2
Atom   4O    basis set group =>   3
Atom   5C    basis set group =>   2
Atom   6C    basis set group =>   2
Atom   7C    basis set group =>   2
Atom   8C    basis set group =>   2
Atom   9C    basis set group =>   2
Atom  10H    basis set group =>   4
Atom  11H    basis set group =>   4
Atom  12H    basis set group =>   4
Atom  13H    basis set group =>   4
Atom  14H    basis set group =>   4
Atom  15H    basis set group =>   4
Atom  16H    basis set group =>   4
Atom  17H    basis set group =>   4
Atom  18H    basis set group =>   4
Atom  19H    basis set group =>   4
Atom  20H    basis set group =>   4
---------------------------------
AUXILIARY/J BASIS SET INFORMATION
---------------------------------
There are 4 groups of distinct atoms

 Group   1 Type N   : 12s5p4d2f1g contracted to 6s4p3d1f1g pattern {711111/2111/211/2/1}
 Group   2 Type C   : 12s5p4d2f1g contracted to 6s4p3d1f1g pattern {711111/2111/211/2/1}
 Group   3 Type O   : 12s5p4d2f1g contracted to 6s4p3d1f1g pattern {711111/2111/211/2/1}
 Group   4 Type H   : 5s2p1d contracted to 3s1p1d pattern {311/2/1}

Atom   0N    basis set group =>   1
Atom   1C    basis set group =>   2
Atom   2C    basis set group =>   2
Atom   3C    basis set group =>   2
Atom   4O    basis set group =>   3
Atom   5C    basis set group =>   2
Atom   6C    basis set group =>   2
Atom   7C    basis set group =>   2
Atom   8C    basis set group =>   2
Atom   9C    basis set group =>   2
Atom  10H    basis set group =>   4
Atom  11H    basis set group =>   4
Atom  12H    basis set group =>   4
Atom  13H    basis set group =>   4
Atom  14H    basis set group =>   4
Atom  15H    basis set group =>   4
Atom  16H    basis set group =>   4
Atom  17H    basis set group =>   4
Atom  18H    basis set group =>   4
Atom  19H    basis set group =>   4
Atom  20H    basis set group =>   4


           ************************************************************
           *        Program running with 16 parallel MPI-processes    *
           *              working on a common directory               *
           ************************************************************
------------------------------------------------------------------------------
                           ORCA GTO INTEGRAL CALCULATION
                           -- RI-GTO INTEGRALS CHOSEN --
------------------------------------------------------------------------------
------------------------------------------------------------------------------
                   ___                                                        
                  /   \      - P O W E R E D   B Y -                         
                 /     \                                                     
                 |  |  |   _    _      __       _____    __    __             
                 |  |  |  | |  | |    /  \     |  _  \  |  |  /  |          
                  \  \/   | |  | |   /    \    | | | |  |  | /  /          
                 / \  \   | |__| |  /  /\  \   | |_| |  |  |/  /          
                |  |  |   |  __  | /  /__\  \  |    /   |      \           
                |  |  |   | |  | | |   __   |  |    \   |  |\   \          
                \     /   | |  | | |  |  |  |  | |\  \  |  | \   \       
                 \___/    |_|  |_| |__|  |__|  |_| \__\ |__|  \__/        
                                                                              
                      - O R C A' S   B I G   F R I E N D -                    
                                      &                                       
                       - I N T E G R A L  F E E D E R -                       
                                                                              
 v1 FN, 2020, v2 2021                                                         
------------------------------------------------------------------------------


Reading SHARK input file freq.SHARKINP.tmp ... ok
----------------------
SHARK INTEGRAL PACKAGE
----------------------

Number of atoms                             ...     21
Number of basis functions                   ...    376
Number of shells                            ...    154
Maximum angular momentum                    ...      3
Integral batch strategy                     ... SHARK/LIBINT Hybrid
RI-J (if used) integral strategy            ... SPLIT-RIJ (Revised 2003 algorithm where possible)
Printlevel                                  ...      1
Contraction scheme used                     ... SEGMENTED contraction
Coulomb Range Separation                    ... NOT USED
Exchange Range Separation                   ... NOT USED
Finite Nucleus Model                        ... NOT USED
Auxiliary Coulomb fitting basis             ... AVAILABLE
   # of basis functions in Aux-J            ...    611
   # of shells in Aux-J                     ...    205
   Maximum angular momentum in Aux-J        ...      4
Auxiliary J/K fitting basis                 ... NOT available
Auxiliary Correlation fitting basis         ... NOT available
Auxiliary 'external' fitting basis          ... NOT available
Integral threshold                          ...     2.500000e-11
Primitive cut-off                           ...     2.500000e-12
Primitive pair pre-selection threshold      ...     2.500000e-12

Calculating pre-screening integrals         ... done (  0.1 sec) Dimension = 154
Organizing shell pair data                  ... done (  0.1 sec)
Shell pair information
Total number of shell pairs                 ...     11935
Shell pairs after pre-screening             ...     10489
Total number of primitive shell pairs       ...     35764
Primitive shell pairs kept                  ...     23074
          la=0 lb=0:   2921 shell pairs
          la=1 lb=0:   3003 shell pairs
          la=1 lb=1:    789 shell pairs
          la=2 lb=0:   1484 shell pairs
          la=2 lb=1:    756 shell pairs
          la=2 lb=2:    198 shell pairs
          la=3 lb=0:    717 shell pairs
          la=3 lb=1:    379 shell pairs
          la=3 lb=2:    190 shell pairs
          la=3 lb=3:     52 shell pairs

Calculating one electron integrals          ... done (  0.0 sec)
Calculating RI/J V-Matrix + Cholesky decomp.... done (  0.1 sec)
Calculating Nuclear repulsion               ... done (  0.0 sec) ENN=    518.026517338124 Eh

SHARK setup successfully completed in   0.6 seconds

Maximum memory used throughout the entire GTOINT-calculation: 23.5 MB


           ************************************************************
           *        Program running with 16 parallel MPI-processes    *
           *              working on a common directory               *
           ************************************************************
-------------------------------------------------------------------------------
                                 ORCA SCF
-------------------------------------------------------------------------------

------------
SCF SETTINGS
------------
Hamiltonian:
 Density Functional     Method          .... DFT(GTOs)
 Exchange Functional    Exchange        .... M062X
 Correlation Functional Correlation     .... M062X
 Gradients option       PostSCFGGA      .... off
 Hybrid DFT is turned on
   Fraction HF Exchange ScalHFX         ....  0.540000
   Scaling of DF-GGA-X  ScalDFX         ....  0.460000
   Scaling of DF-GGA-C  ScalDFC         ....  1.000000
   Scaling of DF-LDA-C  ScalLDAC        ....  1.000000
   Perturbative correction              ....  0.000000
   Density functional embedding theory  .... OFF
 RI-approximation to the Coulomb term is turned on
   Number of AuxJ basis functions       .... 611
   RIJ-COSX (HFX calculated with COS-X)).... on


General Settings:
 Integral files         IntName         .... freq
 Hartree-Fock type      HFTyp           .... UHF
 Total Charge           Charge          ....    1
 Multiplicity           Mult            ....    2
 Number of Electrons    NEL             ....   73
 Basis Dimension        Dim             ....  376
 Nuclear Repulsion      ENuc            ....    518.0265173381 Eh

Convergence Acceleration:
 DIIS                   CNVDIIS         .... on
   Start iteration      DIISMaxIt       ....    12
   Startup error        DIISStart       ....  0.200000
   # of expansion vecs  DIISMaxEq       ....     5
   Bias factor          DIISBfac        ....   1.050
   Max. coefficient     DIISMaxC        ....  10.000
 Trust-Rad. Augm. Hess. CNVTRAH         .... auto
   Auto Start mean grad. ratio tolernc. ....  1.125000
   Auto Start start iteration           ....    20
   Auto Start num. interpolation iter.  ....    10
   Max. Number of Micro iterations      ....    16
   Max. Number of Macro iterations      .... Maxiter - #DIIS iter
   Number of Davidson start vectors     ....     2
   Converg. threshold I  (grad. norm)   ....   1.000e-05
   Converg. threshold II (energy diff.) ....   1.000e-08
   Grad. Scal. Fac. for Micro threshold ....   0.100
   Minimum threshold for Micro iter.    ....   0.010
   NR start threshold (gradient norm)   ....   0.001
   Initial trust radius                 ....   0.400
   Minimum AH scaling param. (alpha)    ....   1.000
   Maximum AH scaling param. (alpha)    .... 1000.000
   Orbital update algorithm             .... Taylor
   White noise on init. David. guess    .... on
   Maximum white noise                  ....   0.010
   Quad. conv. algorithm                .... NR
 SOSCF                  CNVSOSCF        .... off
 Level Shifting         CNVShift        .... on
   Level shift para.    LevelShift      ....    0.2500
   Turn off err/grad.   ShiftErr        ....    0.0010
 Zerner damping         CNVZerner       .... off
 Static damping         CNVDamp         .... on
   Fraction old density DampFac         ....    0.7000
   Max. Damping (<1)    DampMax         ....    0.9800
   Min. Damping (>=0)   DampMin         ....    0.0000
   Turn off err/grad.   DampErr         ....    0.1000
 Fernandez-Rico         CNVRico         .... off

SCF Procedure:
 Maximum # iterations   MaxIter         ....   125
 SCF integral mode      SCFMode         .... Direct
   Integral package                     .... SHARK and LIBINT hybrid scheme
 Reset frequency        DirectResetFreq ....    20
 Integral Threshold     Thresh          ....  2.500e-11 Eh
 Primitive CutOff       TCut            ....  2.500e-12 Eh

Convergence Tolerance:
 Convergence Check Mode ConvCheckMode   .... Total+1el-Energy
 Convergence forced     ConvForced      .... 0
 Energy Change          TolE            ....  1.000e-08 Eh
 1-El. energy change                    ....  1.000e-05 Eh
 DIIS Error             TolErr          ....  5.000e-07


Diagonalization of the overlap matrix:
Smallest eigenvalue                        ... 3.642e-05
Time for diagonalization                   ...    0.028 sec
Threshold for overlap eigenvalues          ... 1.000e-08
Number of eigenvalues below threshold      ... 0
Time for construction of square roots      ...    0.035 sec
Total time needed                          ...    0.064 sec

Time for model grid setup =    0.146 sec

------------------------------
INITIAL GUESS: MODEL POTENTIAL
------------------------------
Loading Hartree-Fock densities                     ... done
Calculating cut-offs                               ... done
Initializing the effective Hamiltonian             ... done
Setting up the integral package (SHARK)            ... done
Starting the Coulomb interaction                   ... done (   0.2 sec)
Reading the grid                                   ... done
Mapping shells                                     ... done
Starting the XC term evaluation                    ... done (   0.1 sec)
  promolecular density results
     # of electrons  =     73.991465613
     EX              =    -58.833030722
     EC              =     -2.451694090
     EX+EC           =    -61.284724812
Transforming the Hamiltonian                       ... done (   0.0 sec)
Diagonalizing the Hamiltonian                      ... done (   0.0 sec)
Back transforming the eigenvectors                 ... done (   0.0 sec)
Now organizing SCF variables                       ... done
                      ------------------
                      INITIAL GUESS DONE (   0.6 sec)
                      ------------------
-------------------
DFT GRID GENERATION
-------------------

General Integration Accuracy     IntAcc      ... 4.388
Radial Grid Type                 RadialGrid  ... OptM3 with GC (2021)
Angular Grid (max. ang.)         AngularGrid ... 4 (Lebedev-302)
Angular grid pruning method      GridPruning ... 4 (adaptive)
Weight generation scheme         WeightScheme... Becke
Basis function cutoff            BFCut       ... 1.0000e-11
Integration weight cutoff        WCut        ... 1.0000e-14
Angular grids for H and He will be reduced by one unit
Partially contracted basis set               ... off
Rotationally invariant grid construction     ... off

Total number of grid points                  ...    95327
Total number of batches                      ...     1501
Average number of points per batch           ...       63
Average number of grid points per atom       ...     4539
Time for grid setup =    0.500 sec

--------------------
COSX GRID GENERATION
--------------------

GRIDX 1
-------
General Integration Accuracy     IntAcc      ... 3.816
Radial Grid Type                 RadialGrid  ... OptM3 with GC (2021)
Angular Grid (max. ang.)         AngularGrid ... 1 (Lebedev-50)
Angular grid pruning method      GridPruning ... 4 (adaptive)
Weight generation scheme         WeightScheme... Becke
Basis function cutoff            BFCut       ... 1.0000e-11
Integration weight cutoff        WCut        ... 1.0000e-14
Angular grids for H and He will be reduced by one unit
Partially contracted basis set               ... on
Rotationally invariant grid construction     ... off

Total number of grid points                  ...    12214
Total number of batches                      ...      201
Average number of points per batch           ...       60
Average number of grid points per atom       ...      582
UseSFitting                                  ... on

GRIDX 2
-------
General Integration Accuracy     IntAcc      ... 4.020
Radial Grid Type                 RadialGrid  ... OptM3 with GC (2021)
Angular Grid (max. ang.)         AngularGrid ... 2 (Lebedev-110)
Angular grid pruning method      GridPruning ... 4 (adaptive)
Weight generation scheme         WeightScheme... Becke
Basis function cutoff            BFCut       ... 1.0000e-11
Integration weight cutoff        WCut        ... 1.0000e-14
Angular grids for H and He will be reduced by one unit
Partially contracted basis set               ... on
Rotationally invariant grid construction     ... off

Total number of grid points                  ...    26111
Total number of batches                      ...      418
Average number of points per batch           ...       62
Average number of grid points per atom       ...     1243
UseSFitting                                  ... on

GRIDX 3
-------
General Integration Accuracy     IntAcc      ... 4.338
Radial Grid Type                 RadialGrid  ... OptM3 with GC (2021)
Angular Grid (max. ang.)         AngularGrid ... 3 (Lebedev-194)
Angular grid pruning method      GridPruning ... 4 (adaptive)
Weight generation scheme         WeightScheme... Becke
Basis function cutoff            BFCut       ... 1.0000e-11
Integration weight cutoff        WCut        ... 1.0000e-14
Angular grids for H and He will be reduced by one unit
Partially contracted basis set               ... on
Rotationally invariant grid construction     ... off

Total number of grid points                  ...    57267
Total number of batches                      ...      907
Average number of points per batch           ...       63
Average number of grid points per atom       ...     2727
UseSFitting                                  ... on

Time for X-Grid setup             =    1.113 sec

--------------
SCF ITERATIONS
--------------
ITER       Energy         Delta-E        Max-DP      RMS-DP      [F,P]     Damp
               ***  Starting incremental Fock matrix formation  ***
  0   -440.8861422403   0.000000000000 0.07767226  0.00066486  0.1678515 0.7000
  1   -440.9924734807  -0.106331240399 0.06363064  0.00053417  0.0818920 0.7000
                               ***Turning on DIIS***
  2   -441.0389879833  -0.046514502531 0.07008448  0.00090867  0.0329530 0.0000
  3   -441.1179270667  -0.078939083388 0.06784351  0.00045124  0.0362119 0.0000
  4   -441.1318539636  -0.013926896939 0.01146911  0.00010417  0.0195941 0.0000
  5   -441.1332364255  -0.001382461859 0.00887139  0.00007382  0.0064321 0.0000
  6   -441.1338040448  -0.000567619308 0.00500934  0.00004704  0.0057226 0.0000
  7   -441.1341888011  -0.000384756378 0.00434528  0.00003918  0.0031770 0.0000
  8   -441.1344331940  -0.000244392818 0.00212679  0.00002158  0.0022671 0.0000
  9   -441.1345338210  -0.000100627043 0.00113685  0.00001203  0.0011533 0.0000
 10   -441.1345734262  -0.000039605195 0.00127047  0.00001332  0.0006879 0.0000
               *** Restarting incremental Fock matrix formation ***
                                   *** Resetting DIIS ***
 11   -441.1345904802  -0.000017053994 0.00124241  0.00001154  0.0002776 0.0000
 12   -441.1345934440  -0.000002963775 0.00032062  0.00000267  0.0004114 0.0000
 13   -441.1345952695  -0.000001825517 0.00031696  0.00000367  0.0001469 0.0000
 14   -441.1345967287  -0.000001459205 0.00012417  0.00000154  0.0001150 0.0000
 15   -441.1345971542  -0.000000425540 0.00009848  0.00000116  0.0000730 0.0000
 16   -441.1345972936  -0.000000139376 0.00002531  0.00000034  0.0000188 0.0000
 17   -441.1345973116  -0.000000018034 0.00000975  0.00000016  0.0000106 0.0000
 18   -441.1345973106   0.000000001042 0.00001166  0.00000008  0.0000046 0.0000
 19   -441.1345973009   0.000000009742 0.00000801  0.00000007  0.0000048 0.0000
                 **** Energy Check signals convergence ****

               *****************************************************
               *                     SUCCESS                       *
               *           SCF CONVERGED AFTER  20 CYCLES          *
               *****************************************************

Old exchange energy                            =    -32.350959225 Eh
New exchange energy                            =    -32.350947770 Eh
Exchange energy change after final integration =      0.000011455 Eh
Total energy after final integration           =   -441.134585849 Eh
Final COS-X integration done in                =     3.495 sec

----------------
TOTAL SCF ENERGY
----------------

Total Energy       :         -441.13458585 Eh          -12003.88235 eV

Components:
Nuclear Repulsion  :          518.02651734 Eh           14096.21817 eV
Electronic Energy  :         -959.16110319 Eh          -26100.10052 eV
One Electron Energy:        -1609.85711128 Eh          -43806.43907 eV
Two Electron Energy:          650.69600810 Eh           17706.33855 eV
Max COSX asymmetry :            0.00000096 Eh               0.00003 eV

Virial components:
Potential Energy   :         -879.76705550 Eh          -23939.67865 eV
Kinetic Energy     :          438.63246965 Eh           11935.79630 eV
Virial Ratio       :            2.00570436


DFT components:
N(Alpha)           :       37.000081727468 electrons
N(Beta)            :       36.000085824477 electrons
N(Total)           :       73.000167551945 electrons
E(XC)              :      -30.167277089989 Eh       
DFET-embed. en.    :        0.000000000000 Eh       

---------------
SCF CONVERGENCE
---------------

  Last Energy change         ...   -3.7465e-09  Tolerance :   1.0000e-08
  Last MAX-Density change    ...    0.0000e+00  Tolerance :   1.0000e-07
  Last RMS-Density change    ...    0.0000e+00  Tolerance :   5.0000e-09
  Last DIIS Error            ...    1.8364e-06  Tolerance :   5.0000e-07

             **** THE GBW FILE WAS UPDATED (freq.gbw) ****
             **** DENSITY freq.scfp WAS UPDATED ****
             **** ENERGY FILE WAS UPDATED (freq.en.tmp) ****
----------------------
UHF SPIN CONTAMINATION
----------------------

Warning: in a DFT calculation there is little theoretical justification to 
         calculate <S**2> as in Hartree-Fock theory. We will do it anyways
         but you should keep in mind that the values have only limited relevance

Expectation value of <S**2>     :     0.789776
Ideal value S*(S+1) for S=0.5   :     0.750000
Deviation                       :     0.039776

             **** THE GBW FILE WAS UPDATED (freq.gbw) ****
             **** DENSITY freq.scfp WAS UPDATED ****
----------------
ORBITAL ENERGIES
----------------
                 SPIN UP ORBITALS
  NO   OCC          E(Eh)            E(eV) 
   0   1.0000     -19.804332      -538.9033 
   1   1.0000     -15.046928      -409.4477 
   2   1.0000     -10.805836      -294.0417 
   3   1.0000     -10.798463      -293.8411 
   4   1.0000     -10.797938      -293.8268 
   5   1.0000     -10.769105      -293.0422 
   6   1.0000     -10.764139      -292.9071 
   7   1.0000     -10.755144      -292.6624 
   8   1.0000     -10.696255      -291.0599 
   9   1.0000     -10.689021      -290.8630 
  10   1.0000      -1.340288       -36.4711 
  11   1.0000      -1.314515       -35.7698 
  12   1.0000      -1.125325       -30.6217 
  13   1.0000      -1.064787       -28.9743 
  14   1.0000      -1.027134       -27.9497 
  15   1.0000      -0.988309       -26.8933 
  16   1.0000      -0.946613       -25.7586 
  17   1.0000      -0.880752       -23.9665 
  18   1.0000      -0.872387       -23.7389 
  19   1.0000      -0.794243       -21.6124 
  20   1.0000      -0.787699       -21.4344 
  21   1.0000      -0.747188       -20.3320 
  22   1.0000      -0.722930       -19.6719 
  23   1.0000      -0.696489       -18.9524 
  24   1.0000      -0.689511       -18.7625 
  25   1.0000      -0.685457       -18.6522 
  26   1.0000      -0.665782       -18.1169 
  27   1.0000      -0.651736       -17.7346 
  28   1.0000      -0.639804       -17.4099 
  29   1.0000      -0.628513       -17.1027 
  30   1.0000      -0.628165       -17.0932 
  31   1.0000      -0.613861       -16.7040 
  32   1.0000      -0.599928       -16.3249 
  33   1.0000      -0.594257       -16.1706 
  34   1.0000      -0.524144       -14.2627 
  35   1.0000      -0.517573       -14.0839 
  36   1.0000      -0.467579       -12.7235 
  37   0.0000      -0.219463        -5.9719 
  38   0.0000      -0.161822        -4.4034 
  39   0.0000      -0.087947        -2.3932 
  40   0.0000      -0.069556        -1.8927 
  41   0.0000      -0.054556        -1.4845 
  42   0.0000      -0.047785        -1.3003 
  43   0.0000      -0.039044        -1.0624 
  44   0.0000      -0.032034        -0.8717 
  45   0.0000      -0.012197        -0.3319 
  46   0.0000      -0.009251        -0.2517 
  47   0.0000      -0.005409        -0.1472 
  48   0.0000       0.004227         0.1150 
  49   0.0000       0.009085         0.2472 
  50   0.0000       0.018299         0.4980 
  51   0.0000       0.031977         0.8701 
  52   0.0000       0.043778         1.1913 
  53   0.0000       0.045026         1.2252 
  54   0.0000       0.048044         1.3074 
  55   0.0000       0.070276         1.9123 
  56   0.0000       0.078811         2.1446 
  57   0.0000       0.087870         2.3911 
  58   0.0000       0.089639         2.4392 
  59   0.0000       0.092087         2.5058 
  60   0.0000       0.099969         2.7203 
  61   0.0000       0.104052         2.8314 
  62   0.0000       0.123745         3.3673 
  63   0.0000       0.126219         3.4346 
  64   0.0000       0.142464         3.8766 
  65   0.0000       0.150741         4.1019 
  66   0.0000       0.161998         4.4082 
  67   0.0000       0.174467         4.7475 
  68   0.0000       0.177626         4.8335 
  69   0.0000       0.183943         5.0053 
  70   0.0000       0.190873         5.1939 
  71   0.0000       0.200396         5.4531 
  72   0.0000       0.217017         5.9053 
  73   0.0000       0.241016         6.5584 
  74   0.0000       0.241407         6.5690 
  75   0.0000       0.254093         6.9142 
  76   0.0000       0.265541         7.2257 
  77   0.0000       0.271159         7.3786 
  78   0.0000       0.278103         7.5676 
  79   0.0000       0.287991         7.8366 
  80   0.0000       0.290168         7.8959 
  81   0.0000       0.305308         8.3078 
  82   0.0000       0.310258         8.4426 
  83   0.0000       0.316002         8.5988 
  84   0.0000       0.336898         9.1675 
  85   0.0000       0.340537         9.2665 
  86   0.0000       0.343392         9.3442 
  87   0.0000       0.348484         9.4827 
  88   0.0000       0.362149         9.8546 
  89   0.0000       0.362850         9.8737 
  90   0.0000       0.374840        10.1999 
  91   0.0000       0.380543        10.3551 
  92   0.0000       0.383867        10.4456 
  93   0.0000       0.395109        10.7515 
  94   0.0000       0.410055        11.1582 
  95   0.0000       0.413065        11.2401 
  96   0.0000       0.422703        11.5023 
  97   0.0000       0.436938        11.8897 
  98   0.0000       0.460074        12.5192 
  99   0.0000       0.467273        12.7151 
 100   0.0000       0.477692        12.9987 
 101   0.0000       0.490855        13.3568 
 102   0.0000       0.501399        13.6438 
 103   0.0000       0.506017        13.7694 
 104   0.0000       0.518987        14.1224 
 105   0.0000       0.534754        14.5514 
 106   0.0000       0.537868        14.6361 
 107   0.0000       0.546429        14.8691 
 108   0.0000       0.563468        15.3327 
 109   0.0000       0.580274        15.7900 
 110   0.0000       0.606723        16.5098 
 111   0.0000       0.624280        16.9875 
 112   0.0000       0.639307        17.3964 
 113   0.0000       0.642033        17.4706 
 114   0.0000       0.650760        17.7081 
 115   0.0000       0.662748        18.0343 
 116   0.0000       0.664666        18.0865 
 117   0.0000       0.684837        18.6354 
 118   0.0000       0.726756        19.7760 
 119   0.0000       0.736467        20.0403 
 120   0.0000       0.751287        20.4436 
 121   0.0000       0.759327        20.6624 
 122   0.0000       0.776141        21.1199 
 123   0.0000       0.808466        21.9995 
 124   0.0000       0.819690        22.3049 
 125   0.0000       0.821686        22.3592 
 126   0.0000       0.839604        22.8468 
 127   0.0000       0.868779        23.6407 
 128   0.0000       0.877080        23.8666 
 129   0.0000       0.907987        24.7076 
 130   0.0000       0.922811        25.1110 
 131   0.0000       0.925877        25.1944 
 132   0.0000       0.954673        25.9780 
 133   0.0000       0.957580        26.0571 
 134   0.0000       0.965040        26.2601 
 135   0.0000       1.003933        27.3184 
 136   0.0000       1.016257        27.6538 
 137   0.0000       1.026731        27.9388 
 138   0.0000       1.040538        28.3145 
 139   0.0000       1.055430        28.7197 
 140   0.0000       1.070378        29.1265 
 141   0.0000       1.088070        29.6079 
 142   0.0000       1.127532        30.6817 
 143   0.0000       1.162519        31.6337 
 144   0.0000       1.174610        31.9628 
 145   0.0000       1.178774        32.0761 
 146   0.0000       1.210036        32.9268 
 147   0.0000       1.221218        33.2310 
 148   0.0000       1.233315        33.5602 
 149   0.0000       1.235520        33.6202 
 150   0.0000       1.253338        34.1051 
 151   0.0000       1.296560        35.2812 
 152   0.0000       1.308063        35.5942 
 153   0.0000       1.321821        35.9686 
 154   0.0000       1.351524        36.7769 
 155   0.0000       1.361298        37.0428 
 156   0.0000       1.378291        37.5052 
 157   0.0000       1.392792        37.8998 
 158   0.0000       1.397774        38.0354 
 159   0.0000       1.414701        38.4960 
 160   0.0000       1.417004        38.5586 
 161   0.0000       1.427280        38.8383 
 162   0.0000       1.438717        39.1495 
 163   0.0000       1.441556        39.2267 
 164   0.0000       1.447218        39.3808 
 165   0.0000       1.467096        39.9217 
 166   0.0000       1.490965        40.5712 
 167   0.0000       1.495307        40.6894 
 168   0.0000       1.500654        40.8349 
 169   0.0000       1.530486        41.6466 
 170   0.0000       1.534857        41.7656 
 171   0.0000       1.538708        41.8704 
 172   0.0000       1.541817        41.9550 
 173   0.0000       1.562240        42.5107 
 174   0.0000       1.580801        43.0158 
 175   0.0000       1.585595        43.1462 
 176   0.0000       1.614059        43.9208 
 177   0.0000       1.646202        44.7954 
 178   0.0000       1.660127        45.1744 
 179   0.0000       1.673648        45.5423 
 180   0.0000       1.696379        46.1608 
 181   0.0000       1.721795        46.8524 
 182   0.0000       1.739954        47.3466 
 183   0.0000       1.767442        48.0945 
 184   0.0000       1.808837        49.2210 
 185   0.0000       1.815643        49.4061 
 186   0.0000       1.841246        50.1028 
 187   0.0000       1.854223        50.4560 
 188   0.0000       1.871640        50.9299 
 189   0.0000       1.874476        51.0071 
 190   0.0000       1.891689        51.4755 
 191   0.0000       1.894183        51.5434 
 192   0.0000       1.900678        51.7201 
 193   0.0000       1.919644        52.2362 
 194   0.0000       1.926758        52.4297 
 195   0.0000       1.962459        53.4012 
 196   0.0000       1.971466        53.6463 
 197   0.0000       2.026428        55.1419 
 198   0.0000       2.055118        55.9226 
 199   0.0000       2.057229        55.9800 
 200   0.0000       2.058787        56.0224 
 201   0.0000       2.073693        56.4281 
 202   0.0000       2.101881        57.1951 
 203   0.0000       2.105566        57.2954 
 204   0.0000       2.140816        58.2546 
 205   0.0000       2.143058        58.3156 
 206   0.0000       2.169433        59.0333 
 207   0.0000       2.177138        59.2429 
 208   0.0000       2.187092        59.5138 
 209   0.0000       2.214326        60.2549 
 210   0.0000       2.225611        60.5619 
 211   0.0000       2.230742        60.7016 
 212   0.0000       2.234266        60.7975 
 213   0.0000       2.259840        61.4934 
 214   0.0000       2.262530        61.5666 
 215   0.0000       2.283154        62.1278 
 216   0.0000       2.323768        63.2330 
 217   0.0000       2.337849        63.6161 
 218   0.0000       2.341588        63.7179 
 219   0.0000       2.356646        64.1276 
 220   0.0000       2.369925        64.4889 
 221   0.0000       2.373536        64.5872 
 222   0.0000       2.396926        65.2237 
 223   0.0000       2.413649        65.6787 
 224   0.0000       2.417163        65.7744 
 225   0.0000       2.418896        65.8215 
 226   0.0000       2.455956        66.8300 
 227   0.0000       2.471720        67.2589 
 228   0.0000       2.481494        67.5249 
 229   0.0000       2.510014        68.3010 
 230   0.0000       2.530811        68.8669 
 231   0.0000       2.547069        69.3093 
 232   0.0000       2.572695        70.0066 
 233   0.0000       2.585826        70.3639 
 234   0.0000       2.597489        70.6813 
 235   0.0000       2.623532        71.3899 
 236   0.0000       2.648052        72.0572 
 237   0.0000       2.653493        72.2052 
 238   0.0000       2.674056        72.7648 
 239   0.0000       2.690183        73.2036 
 240   0.0000       2.700293        73.4787 
 241   0.0000       2.718702        73.9796 
 242   0.0000       2.735237        74.4296 
 243   0.0000       2.737510        74.4914 
 244   0.0000       2.746682        74.7410 
 245   0.0000       2.757941        75.0474 
 246   0.0000       2.787938        75.8637 
 247   0.0000       2.806789        76.3766 
 248   0.0000       2.834000        77.1171 
 249   0.0000       2.841495        77.3210 
 250   0.0000       2.841944        77.3332 
 251   0.0000       2.866801        78.0096 
 252   0.0000       2.876287        78.2678 
 253   0.0000       2.878771        78.3353 
 254   0.0000       2.879216        78.3475 
 255   0.0000       2.889011        78.6140 
 256   0.0000       2.899057        78.8874 
 257   0.0000       2.940861        80.0249 
 258   0.0000       2.963701        80.6464 
 259   0.0000       2.965651        80.6995 
 260   0.0000       2.977826        81.0308 
 261   0.0000       2.982243        81.1510 
 262   0.0000       3.001431        81.6731 
 263   0.0000       3.007006        81.8248 
 264   0.0000       3.019520        82.1653 
 265   0.0000       3.054616        83.1203 
 266   0.0000       3.055130        83.1343 
 267   0.0000       3.068146        83.4885 
 268   0.0000       3.084328        83.9288 
 269   0.0000       3.092148        84.1416 
 270   0.0000       3.108998        84.6001 
 271   0.0000       3.110940        84.6530 
 272   0.0000       3.121879        84.9507 
 273   0.0000       3.122877        84.9778 
 274   0.0000       3.130783        85.1929 
 275   0.0000       3.146803        85.6289 
 276   0.0000       3.175128        86.3996 
 277   0.0000       3.199556        87.0643 
 278   0.0000       3.202577        87.1465 
 279   0.0000       3.212551        87.4180 
 280   0.0000       3.217560        87.5542 
 281   0.0000       3.227619        87.8280 
 282   0.0000       3.248708        88.4018 
 283   0.0000       3.257607        88.6440 
 284   0.0000       3.270497        88.9947 
 285   0.0000       3.300815        89.8198 
 286   0.0000       3.305411        89.9448 
 287   0.0000       3.325638        90.4952 
 288   0.0000       3.335177        90.7548 
 289   0.0000       3.350436        91.1700 
 290   0.0000       3.373681        91.8025 
 291   0.0000       3.398698        92.4833 
 292   0.0000       3.431442        93.3743 
 293   0.0000       3.445320        93.7519 
 294   0.0000       3.450902        93.9038 
 295   0.0000       3.480438        94.7075 
 296   0.0000       3.506007        95.4033 
 297   0.0000       3.531623        96.1004 
 298   0.0000       3.543270        96.4173 
 299   0.0000       3.582637        97.4885 
 300   0.0000       3.602796        98.0371 
 301   0.0000       3.620996        98.5323 
 302   0.0000       3.622937        98.5851 
 303   0.0000       3.678916       100.1084 
 304   0.0000       3.712429       101.0203 
 305   0.0000       3.716243       101.1241 
 306   0.0000       3.767978       102.5319 
 307   0.0000       3.787825       103.0720 
 308   0.0000       3.800718       103.4228 
 309   0.0000       3.866429       105.2109 
 310   0.0000       3.883354       105.6714 
 311   0.0000       3.895012       105.9887 
 312   0.0000       3.911454       106.4361 
 313   0.0000       3.913395       106.4889 
 314   0.0000       3.962700       107.8305 
 315   0.0000       3.978706       108.2661 
 316   0.0000       3.982715       108.3752 
 317   0.0000       4.002185       108.9050 
 318   0.0000       4.047933       110.1499 
 319   0.0000       4.057638       110.4139 
 320   0.0000       4.063385       110.5703 
 321   0.0000       4.132237       112.4439 
 322   0.0000       4.153632       113.0261 
 323   0.0000       4.169947       113.4700 
 324   0.0000       4.210913       114.5848 
 325   0.0000       4.228737       115.0698 
 326   0.0000       4.282332       116.5282 
 327   0.0000       4.291768       116.7850 
 328   0.0000       4.304957       117.1438 
 329   0.0000       4.347219       118.2938 
 330   0.0000       4.347908       118.3126 
 331   0.0000       4.369022       118.8871 
 332   0.0000       4.411651       120.0471 
 333   0.0000       4.457094       121.2837 
 334   0.0000       4.515348       122.8689 
 335   0.0000       4.610387       125.4550 
 336   0.0000       4.644963       126.3959 
 337   0.0000       4.679011       127.3224 
 338   0.0000       4.743350       129.0731 
 339   0.0000       4.782508       130.1387 
 340   0.0000       4.803762       130.7170 
 341   0.0000       4.826344       131.3315 
 342   0.0000       4.884066       132.9022 
 343   0.0000       4.924898       134.0133 
 344   0.0000       4.953086       134.7803 
 345   0.0000       5.007305       136.2557 
 346   0.0000       5.017944       136.5452 
 347   0.0000       5.052067       137.4737 
 348   0.0000       5.072853       138.0393 
 349   0.0000       5.177563       140.8887 
 350   0.0000       5.211256       141.8055 
 351   0.0000       5.254465       142.9813 
 352   0.0000       5.380276       146.4048 
 353   0.0000       5.457696       148.5115 
 354   0.0000       5.519696       150.1986 
 355   0.0000       5.554684       151.1506 
 356   0.0000       5.651151       153.7756 
 357   0.0000       5.753118       156.5503 
 358   0.0000       5.825401       158.5172 
 359   0.0000       6.142462       167.1449 
 360   0.0000       6.183113       168.2510 
 361   0.0000       6.387603       173.8155 
 362   0.0000       6.416067       174.5901 
 363   0.0000       6.605787       179.7526 
 364   0.0000       6.860382       186.6805 
 365   0.0000       6.888983       187.4587 
 366   0.0000      22.280877       606.2935 
 367   0.0000      22.342721       607.9763 
 368   0.0000      22.370854       608.7419 
 369   0.0000      22.441961       610.6768 
 370   0.0000      22.633142       615.8791 
 371   0.0000      22.732283       618.5769 
 372   0.0000      22.979628       625.3075 
 373   0.0000      23.308430       634.2546 
 374   0.0000      32.718974       890.3285 
 375   0.0000      43.905870      1194.7395 

                 SPIN DOWN ORBITALS
  NO   OCC          E(Eh)            E(eV) 
   0   1.0000     -19.795333      -538.6584 
   1   1.0000     -15.048212      -409.4827 
   2   1.0000     -10.804018      -293.9923 
   3   1.0000     -10.799224      -293.8618 
   4   1.0000     -10.796934      -293.7995 
   5   1.0000     -10.767589      -293.0010 
   6   1.0000     -10.764094      -292.9059 
   7   1.0000     -10.756001      -292.6857 
   8   1.0000     -10.696211      -291.0587 
   9   1.0000     -10.689155      -290.8667 
  10   1.0000      -1.325006       -36.0552 
  11   1.0000      -1.303501       -35.4701 
  12   1.0000      -1.121565       -30.5193 
  13   1.0000      -1.055418       -28.7194 
  14   1.0000      -1.024448       -27.8766 
  15   1.0000      -0.986579       -26.8462 
  16   1.0000      -0.944228       -25.6937 
  17   1.0000      -0.875812       -23.8320 
  18   1.0000      -0.869513       -23.6607 
  19   1.0000      -0.790724       -21.5167 
  20   1.0000      -0.784491       -21.3471 
  21   1.0000      -0.742315       -20.1994 
  22   1.0000      -0.717856       -19.5338 
  23   1.0000      -0.692229       -18.8365 
  24   1.0000      -0.677920       -18.4471 
  25   1.0000      -0.670989       -18.2585 
  26   1.0000      -0.665120       -18.0988 
  27   1.0000      -0.637160       -17.3380 
  28   1.0000      -0.632564       -17.2129 
  29   1.0000      -0.626455       -17.0467 
  30   1.0000      -0.622684       -16.9441 
  31   1.0000      -0.597752       -16.2657 
  32   1.0000      -0.592533       -16.1236 
  33   1.0000      -0.578030       -15.7290 
  34   1.0000      -0.506760       -13.7896 
  35   1.0000      -0.505913       -13.7666 
  36   0.0000      -0.291051        -7.9199 
  37   0.0000      -0.194307        -5.2874 
  38   0.0000      -0.136181        -3.7057 
  39   0.0000      -0.089915        -2.4467 
  40   0.0000      -0.070076        -1.9069 
  41   0.0000      -0.054875        -1.4932 
  42   0.0000      -0.046975        -1.2783 
  43   0.0000      -0.040276        -1.0960 
  44   0.0000      -0.023434        -0.6377 
  45   0.0000      -0.012071        -0.3285 
  46   0.0000      -0.009672        -0.2632 
  47   0.0000      -0.005868        -0.1597 
  48   0.0000       0.004096         0.1114 
  49   0.0000       0.007407         0.2015 
  50   0.0000       0.019549         0.5320 
  51   0.0000       0.032768         0.8916 
  52   0.0000       0.043959         1.1962 
  53   0.0000       0.044114         1.2004 
  54   0.0000       0.047772         1.2999 
  55   0.0000       0.068669         1.8686 
  56   0.0000       0.076670         2.0863 
  57   0.0000       0.086582         2.3560 
  58   0.0000       0.089321         2.4306 
  59   0.0000       0.090119         2.4523 
  60   0.0000       0.103096         2.8054 
  61   0.0000       0.103565         2.8181 
  62   0.0000       0.123786         3.3684 
  63   0.0000       0.127307         3.4642 
  64   0.0000       0.139430         3.7941 
  65   0.0000       0.152096         4.1388 
  66   0.0000       0.164118         4.4659 
  67   0.0000       0.174486         4.7480 
  68   0.0000       0.178524         4.8579 
  69   0.0000       0.179630         4.8880 
  70   0.0000       0.190062         5.1719 
  71   0.0000       0.196122         5.3368 
  72   0.0000       0.218770         5.9530 
  73   0.0000       0.240644         6.5483 
  74   0.0000       0.241596         6.5742 
  75   0.0000       0.252360         6.8671 
  76   0.0000       0.260920         7.1000 
  77   0.0000       0.270535         7.3616 
  78   0.0000       0.279160         7.5963 
  79   0.0000       0.287748         7.8300 
  80   0.0000       0.290299         7.8994 
  81   0.0000       0.302297         8.2259 
  82   0.0000       0.312762         8.5107 
  83   0.0000       0.315578         8.5873 
  84   0.0000       0.337711         9.1896 
  85   0.0000       0.341633         9.2963 
  86   0.0000       0.344340         9.3700 
  87   0.0000       0.350410         9.5351 
  88   0.0000       0.361354         9.8329 
  89   0.0000       0.364391         9.9156 
  90   0.0000       0.373499        10.1634 
  91   0.0000       0.378656        10.3037 
  92   0.0000       0.383681        10.4405 
  93   0.0000       0.393185        10.6991 
  94   0.0000       0.408509        11.1161 
  95   0.0000       0.414641        11.2830 
  96   0.0000       0.421298        11.4641 
  97   0.0000       0.434866        11.8333 
  98   0.0000       0.459303        12.4983 
  99   0.0000       0.463896        12.6232 
 100   0.0000       0.481163        13.0931 
 101   0.0000       0.488528        13.2935 
 102   0.0000       0.505709        13.7611 
 103   0.0000       0.507557        13.8113 
 104   0.0000       0.517233        14.0746 
 105   0.0000       0.535468        14.5708 
 106   0.0000       0.538498        14.6533 
 107   0.0000       0.543778        14.7969 
 108   0.0000       0.561780        15.2868 
 109   0.0000       0.579603        15.7718 
 110   0.0000       0.611622        16.6431 
 111   0.0000       0.622548        16.9404 
 112   0.0000       0.639661        17.4061 
 113   0.0000       0.643382        17.5073 
 114   0.0000       0.649714        17.6796 
 115   0.0000       0.664031        18.0692 
 116   0.0000       0.665849        18.1187 
 117   0.0000       0.683949        18.6112 
 118   0.0000       0.727456        19.7951 
 119   0.0000       0.737103        20.0576 
 120   0.0000       0.753123        20.4935 
 121   0.0000       0.762307        20.7434 
 122   0.0000       0.778137        21.1742 
 123   0.0000       0.807470        21.9724 
 124   0.0000       0.818762        22.2797 
 125   0.0000       0.824515        22.4362 
 126   0.0000       0.840946        22.8833 
 127   0.0000       0.871966        23.7274 
 128   0.0000       0.877805        23.8863 
 129   0.0000       0.907965        24.7070 
 130   0.0000       0.924182        25.1483 
 131   0.0000       0.927334        25.2340 
 132   0.0000       0.955211        25.9926 
 133   0.0000       0.959726        26.1155 
 134   0.0000       0.966180        26.2911 
 135   0.0000       1.005187        27.3525 
 136   0.0000       1.019505        27.7421 
 137   0.0000       1.029622        28.0174 
 138   0.0000       1.042238        28.3607 
 139   0.0000       1.060040        28.8452 
 140   0.0000       1.071741        29.1636 
 141   0.0000       1.093083        29.7443 
 142   0.0000       1.128050        30.6958 
 143   0.0000       1.162047        31.6209 
 144   0.0000       1.174308        31.9545 
 145   0.0000       1.182864        32.1874 
 146   0.0000       1.214385        33.0451 
 147   0.0000       1.223134        33.2832 
 148   0.0000       1.240163        33.7466 
 149   0.0000       1.246674        33.9237 
 150   0.0000       1.259674        34.2775 
 151   0.0000       1.300031        35.3756 
 152   0.0000       1.311055        35.6756 
 153   0.0000       1.340189        36.4684 
 154   0.0000       1.351679        36.7810 
 155   0.0000       1.363554        37.1042 
 156   0.0000       1.384536        37.6751 
 157   0.0000       1.394361        37.9425 
 158   0.0000       1.402048        38.1517 
 159   0.0000       1.418774        38.6068 
 160   0.0000       1.421243        38.6740 
 161   0.0000       1.427824        38.8531 
 162   0.0000       1.441031        39.2125 
 163   0.0000       1.443412        39.2772 
 164   0.0000       1.447896        39.3993 
 165   0.0000       1.468725        39.9660 
 166   0.0000       1.493876        40.6504 
 167   0.0000       1.498630        40.7798 
 168   0.0000       1.502379        40.8818 
 169   0.0000       1.532964        41.7141 
 170   0.0000       1.541388        41.9433 
 171   0.0000       1.542085        41.9623 
 172   0.0000       1.545239        42.0481 
 173   0.0000       1.563241        42.5380 
 174   0.0000       1.584662        43.1208 
 175   0.0000       1.589694        43.2578 
 176   0.0000       1.618045        44.0292 
 177   0.0000       1.656608        45.0786 
 178   0.0000       1.663128        45.2560 
 179   0.0000       1.678406        45.6717 
 180   0.0000       1.706907        46.4473 
 181   0.0000       1.727332        47.0031 
 182   0.0000       1.741163        47.3794 
 183   0.0000       1.773321        48.2545 
 184   0.0000       1.810664        49.2707 
 185   0.0000       1.818791        49.4918 
 186   0.0000       1.843612        50.1672 
 187   0.0000       1.857663        50.5496 
 188   0.0000       1.874642        51.0116 
 189   0.0000       1.877438        51.0877 
 190   0.0000       1.893861        51.5346 
 191   0.0000       1.898242        51.6538 
 192   0.0000       1.906774        51.8860 
 193   0.0000       1.925883        52.4059 
 194   0.0000       1.930010        52.5182 
 195   0.0000       1.966917        53.5225 
 196   0.0000       1.975120        53.7457 
 197   0.0000       2.031845        55.2893 
 198   0.0000       2.057769        55.9947 
 199   0.0000       2.059240        56.0348 
 200   0.0000       2.062420        56.1213 
 201   0.0000       2.079726        56.5922 
 202   0.0000       2.104407        57.2638 
 203   0.0000       2.110541        57.4307 
 204   0.0000       2.142126        58.2902 
 205   0.0000       2.146692        58.4145 
 206   0.0000       2.173397        59.1411 
 207   0.0000       2.178918        59.2914 
 208   0.0000       2.190244        59.5996 
 209   0.0000       2.216625        60.3174 
 210   0.0000       2.227998        60.6269 
 211   0.0000       2.232995        60.7629 
 212   0.0000       2.237136        60.8756 
 213   0.0000       2.262916        61.5771 
 214   0.0000       2.266784        61.6823 
 215   0.0000       2.286637        62.2226 
 216   0.0000       2.328082        63.3503 
 217   0.0000       2.341403        63.7128 
 218   0.0000       2.348073        63.8943 
 219   0.0000       2.363289        64.3084 
 220   0.0000       2.373216        64.5785 
 221   0.0000       2.378899        64.7331 
 222   0.0000       2.398682        65.2715 
 223   0.0000       2.419450        65.8366 
 224   0.0000       2.420321        65.8603 
 225   0.0000       2.426103        66.0176 
 226   0.0000       2.459516        66.9268 
 227   0.0000       2.473197        67.2991 
 228   0.0000       2.493648        67.8556 
 229   0.0000       2.514866        68.4330 
 230   0.0000       2.534023        68.9543 
 231   0.0000       2.549549        69.3768 
 232   0.0000       2.576288        70.1044 
 233   0.0000       2.601538        70.7914 
 234   0.0000       2.615584        71.1736 
 235   0.0000       2.631016        71.5936 
 236   0.0000       2.652959        72.1907 
 237   0.0000       2.670530        72.6688 
 238   0.0000       2.680347        72.9359 
 239   0.0000       2.703630        73.5695 
 240   0.0000       2.704973        73.6061 
 241   0.0000       2.729735        74.2799 
 242   0.0000       2.739934        74.5574 
 243   0.0000       2.755651        74.9851 
 244   0.0000       2.762632        75.1750 
 245   0.0000       2.764628        75.2293 
 246   0.0000       2.790560        75.9350 
 247   0.0000       2.810987        76.4908 
 248   0.0000       2.843604        77.3784 
 249   0.0000       2.852922        77.6319 
 250   0.0000       2.853231        77.6404 
 251   0.0000       2.872228        78.1573 
 252   0.0000       2.885011        78.5051 
 253   0.0000       2.887537        78.5739 
 254   0.0000       2.891844        78.6911 
 255   0.0000       2.893849        78.7456 
 256   0.0000       2.906068        79.0781 
 257   0.0000       2.948032        80.2200 
 258   0.0000       2.965810        80.7038 
 259   0.0000       2.974412        80.9379 
 260   0.0000       2.988128        81.3111 
 261   0.0000       2.992541        81.4312 
 262   0.0000       3.002837        81.7114 
 263   0.0000       3.017883        82.1208 
 264   0.0000       3.027770        82.3898 
 265   0.0000       3.059468        83.2524 
 266   0.0000       3.064140        83.3795 
 267   0.0000       3.074657        83.6657 
 268   0.0000       3.095569        84.2347 
 269   0.0000       3.100511        84.3692 
 270   0.0000       3.114663        84.7543 
 271   0.0000       3.117256        84.8248 
 272   0.0000       3.129526        85.1587 
 273   0.0000       3.129651        85.1621 
 274   0.0000       3.139155        85.4207 
 275   0.0000       3.150626        85.7329 
 276   0.0000       3.176350        86.4329 
 277   0.0000       3.204525        87.1996 
 278   0.0000       3.210603        87.3649 
 279   0.0000       3.218565        87.5816 
 280   0.0000       3.222505        87.6888 
 281   0.0000       3.231036        87.9210 
 282   0.0000       3.253507        88.5324 
 283   0.0000       3.268053        88.9282 
 284   0.0000       3.278831        89.2215 
 285   0.0000       3.309710        90.0618 
 286   0.0000       3.311668        90.1151 
 287   0.0000       3.330526        90.6282 
 288   0.0000       3.340161        90.8904 
 289   0.0000       3.357775        91.3697 
 290   0.0000       3.382122        92.0322 
 291   0.0000       3.405043        92.6559 
 292   0.0000       3.439779        93.6011 
 293   0.0000       3.451266        93.9137 
 294   0.0000       3.456135        94.0462 
 295   0.0000       3.485267        94.8389 
 296   0.0000       3.510390        95.5226 
 297   0.0000       3.539413        96.3123 
 298   0.0000       3.550259        96.6075 
 299   0.0000       3.586992        97.6070 
 300   0.0000       3.607522        98.1657 
 301   0.0000       3.626812        98.6906 
 302   0.0000       3.634665        98.9043 
 303   0.0000       3.686408       100.3123 
 304   0.0000       3.717936       101.1702 
 305   0.0000       3.721266       101.2608 
 306   0.0000       3.778715       102.8241 
 307   0.0000       3.792254       103.1925 
 308   0.0000       3.811862       103.7260 
 309   0.0000       3.872828       105.3850 
 310   0.0000       3.896165       106.0200 
 311   0.0000       3.899747       106.1175 
 312   0.0000       3.918441       106.6262 
 313   0.0000       3.931176       106.9727 
 314   0.0000       3.969062       108.0037 
 315   0.0000       3.983977       108.4095 
 316   0.0000       3.990272       108.5808 
 317   0.0000       4.010997       109.1448 
 318   0.0000       4.055009       110.3424 
 319   0.0000       4.064504       110.6008 
 320   0.0000       4.078022       110.9686 
 321   0.0000       4.137249       112.5803 
 322   0.0000       4.160720       113.2189 
 323   0.0000       4.172674       113.5442 
 324   0.0000       4.222541       114.9012 
 325   0.0000       4.234235       115.2194 
 326   0.0000       4.289504       116.7233 
 327   0.0000       4.303320       117.0993 
 328   0.0000       4.311560       117.3235 
 329   0.0000       4.353373       118.4613 
 330   0.0000       4.355545       118.5204 
 331   0.0000       4.382408       119.2514 
 332   0.0000       4.422466       120.3414 
 333   0.0000       4.464166       121.4761 
 334   0.0000       4.524816       123.1265 
 335   0.0000       4.611057       125.4732 
 336   0.0000       4.658748       126.7710 
 337   0.0000       4.679089       127.3245 
 338   0.0000       4.751280       129.2889 
 339   0.0000       4.780687       130.0891 
 340   0.0000       4.826760       131.3428 
 341   0.0000       4.848657       131.9387 
 342   0.0000       4.895948       133.2255 
 343   0.0000       4.936921       134.3404 
 344   0.0000       4.960887       134.9926 
 345   0.0000       5.012308       136.3918 
 346   0.0000       5.025957       136.7632 
 347   0.0000       5.081182       138.2660 
 348   0.0000       5.089584       138.4946 
 349   0.0000       5.182464       141.0220 
 350   0.0000       5.223936       142.1505 
 351   0.0000       5.269793       143.3984 
 352   0.0000       5.406754       147.1252 
 353   0.0000       5.468207       148.7975 
 354   0.0000       5.528764       150.4453 
 355   0.0000       5.562535       151.3643 
 356   0.0000       5.658455       153.9744 
 357   0.0000       5.766880       156.9248 
 358   0.0000       5.863669       159.5586 
 359   0.0000       6.158842       167.5906 
 360   0.0000       6.270493       170.6288 
 361   0.0000       6.399885       174.1497 
 362   0.0000       6.482562       176.3995 
 363   0.0000       6.674352       181.6183 
 364   0.0000       6.887609       187.4214 
[...]
     13       0.000073   0.000000  -0.000002  -0.000055  -0.000000  -0.000049
     14       0.000001   0.000032   0.000027   0.000000   0.000024   0.000006
     15      -0.000145   0.000070  -0.000010  -0.000480   0.000002   0.000767
     16      -0.000110   0.000031   0.000003   0.000006   0.000001  -0.000173
     17      -0.000003  -0.001055   0.000203  -0.000011   0.000023   0.000000
     18       0.000144  -0.001218   0.000044   0.000322   0.000002  -0.015354
     19      -0.000060   0.002495  -0.000054   0.000276   0.000018  -0.090303
     20      -0.000014  -0.089850   0.004764  -0.000055  -0.000020  -0.001442
     21       0.000396  -0.000001  -0.000010  -0.000872   0.000008   0.000292
     22      -0.000040   0.000031   0.000018   0.000943  -0.000005  -0.000176
     23       0.000010   0.000220  -0.000485  -0.000004   0.000041  -0.000015
     24      -0.000054   0.000135   0.001376  -0.077709  -0.000010  -0.000485
     25       0.000028   0.000062   0.000145  -0.051512  -0.000010  -0.000064
     26       0.000002  -0.004701  -0.091934  -0.001233   0.000001  -0.000082
     27      -0.001165  -0.000001   0.000017   0.001214  -0.000151   0.000483
     28       0.000094  -0.000002   0.000010   0.001503  -0.000187   0.000396
     29      -0.000011  -0.000118  -0.000235   0.000023   0.000176   0.000005
     30      -0.175734  -0.000047   0.000077  -0.000064   0.198442   0.000112
     31      -0.290309  -0.000036   0.000062  -0.000106   0.334463   0.000240
     32      -0.530274  -0.000054   0.000081  -0.000160   0.584991   0.000503
     33      -0.181110   0.000059  -0.000089  -0.000027  -0.210158   0.000045
     34      -0.310810   0.000054  -0.000110  -0.000046  -0.367981   0.000140
     35       0.496875  -0.000082   0.000126   0.000040   0.563100  -0.000304
     36      -0.168081   0.000011  -0.000008   0.000254  -0.008034  -0.000585
     37       0.443418  -0.000037   0.000018  -0.000595   0.022095   0.001548
     38       0.010934   0.000046   0.000059  -0.000013  -0.014955   0.000029
     39       0.006207  -0.000010   0.000028   0.000883   0.000602   0.001607
     40      -0.008739   0.000006  -0.000047  -0.001098  -0.000996  -0.002403
     41       0.000023  -0.000005   0.000240  -0.000001   0.000638  -0.000002
     42      -0.000494   0.254765  -0.012023   0.000665  -0.000003  -0.079619
     43       0.000718  -0.379813   0.019536   0.000593  -0.000111   0.107974
     44      -0.001129   0.566305  -0.029313   0.001291   0.000162  -0.190040
     45      -0.000584  -0.250640   0.012299   0.000277   0.000039  -0.078409
     46       0.000748   0.325343  -0.017152   0.001062   0.000066   0.089293
     47       0.001309   0.538268  -0.028905  -0.000445   0.000088   0.180695
     48      -0.000278   0.008830  -0.000673  -0.001197  -0.000070   0.324669
     49      -0.000956   0.024173  -0.001840  -0.004614  -0.000173   0.885749
     50      -0.000029  -0.017313   0.001580  -0.000099  -0.000004   0.026315
     51       0.000280   0.021845   0.409822   0.165890  -0.000101   0.002001
     52      -0.000085  -0.003752  -0.061328  -0.035659   0.000034  -0.000111
     53       0.000447   0.029071   0.567069   0.262059  -0.000093   0.002401
     54      -0.000055  -0.000090   0.006176   0.584081   0.000103   0.002021
     55      -0.000085  -0.000207   0.006919   0.669122   0.000121   0.002524
     56       0.000002  -0.000151  -0.016625   0.016946   0.000016   0.000060
     57       0.000337  -0.022983  -0.432537   0.182511   0.000138   0.001426
     58      -0.000086   0.003359   0.052677  -0.032325  -0.000036   0.000038
     59      -0.000482   0.028144   0.552577  -0.264305  -0.000138  -0.001385
     60       0.005756   0.000003  -0.000067  -0.010159   0.001432  -0.002986
     61       0.005327   0.000014  -0.000122  -0.018079   0.002089  -0.004787
     62       0.000104  -0.000140   0.000267  -0.000190  -0.001103  -0.000011
                 60         61         62    
      0       0.000639   0.000739  -0.001379
      1       0.000237  -0.000848  -0.002058
      2       0.000004   0.000001  -0.000022
      3      -0.011237  -0.000480  -0.001809
      4       0.094007   0.007468   0.008532
      5       0.000659  -0.000156   0.000182
      6       0.005120  -0.008218  -0.047037
      7      -0.007883   0.009595   0.074036
      8       0.000009  -0.000051  -0.000200
      9      -0.000445   0.001193   0.003170
     10      -0.000127   0.000074  -0.001011
     11      -0.000013   0.000014   0.000031
     12       0.000027  -0.000210  -0.000164
     13       0.000032  -0.000230   0.000297
     14       0.000002  -0.000002  -0.000001
     15      -0.000053  -0.000272   0.000278
     16      -0.000097  -0.000134   0.000489
     17      -0.000000  -0.000003   0.000005
     18      -0.000021   0.000087   0.000086
     19      -0.000231   0.000533   0.000132
     20       0.000002   0.000007   0.000001
     21       0.000546  -0.004426  -0.000151
     22      -0.000051   0.000006  -0.000259
     23       0.000009  -0.000049  -0.000004
     24      -0.000049   0.001406  -0.000009
     25      -0.000046   0.001313  -0.000214
     26      -0.000001   0.000035   0.000003
     27      -0.003032   0.050804  -0.006895
     28      -0.004308   0.070434  -0.013098
     29      -0.000039   0.000798  -0.000119
     30      -0.088443  -0.008808  -0.004611
     31      -0.134153  -0.011104  -0.010079
     32      -0.268711  -0.022478  -0.019562
     33      -0.101633  -0.010811  -0.005126
     34      -0.163223  -0.015167  -0.011497
     35       0.281052   0.025821   0.019354
     36       0.309578   0.021539   0.032514
     37      -0.816028  -0.061179  -0.081254
     38      -0.020269  -0.001520  -0.001937
     39      -0.057144   0.081819   0.535577
     40       0.086958  -0.125926  -0.819882
     41      -0.000209   0.000372   0.002324
     42      -0.000241   0.000664  -0.000081
     43       0.000307  -0.000526   0.000019
     44      -0.000547   0.001134   0.000024
     45      -0.000236   0.000668  -0.000118
     46       0.000252  -0.000411   0.000056
     47       0.000521  -0.001060   0.000032
     48       0.000725  -0.001585  -0.000716
     49       0.002112  -0.005257  -0.001805
     50       0.000065  -0.000147  -0.000051
     51       0.000072  -0.001221  -0.000704
     52       0.000022  -0.000517   0.000093
     53       0.000162  -0.002470  -0.000803
     54       0.000521  -0.012759   0.001672
     55       0.000623  -0.016970   0.002329
     56       0.000015  -0.000384   0.000049
     57       0.000080  -0.001355  -0.000691
     58       0.000026  -0.000566   0.000077
     59      -0.000148   0.002445   0.000716
     60       0.036712  -0.552834   0.088039
     61       0.050986  -0.810883   0.128334
     62       0.000548  -0.008792   0.001383


-----------
IR SPECTRUM
-----------

 Mode   freq       eps      Int      T**2         TX        TY        TZ
       cm**-1   L/(mol*cm) km/mol    a.u.
----------------------------------------------------------------------------
  7:     77.72   0.000009    0.04  0.000034  (-0.000142 -0.002424 -0.005345)
  8:    102.03   0.000871    4.40  0.002665  (-0.000439 -0.000840  0.051613)
  9:    155.06   0.000138    0.70  0.000277  ( 0.000676  0.000931 -0.016610)
 10:    182.43   0.000030    0.15  0.000052  (-0.000152 -0.000573  0.007196)
 11:    229.86   0.000584    2.95  0.000793  (-0.000470 -0.000074  0.028154)
 12:    293.70   0.000070    0.35  0.000074  ( 0.002096 -0.008352 -0.000035)
 13:    314.67   0.000283    1.43  0.000280  ( 0.002372  0.016575  0.000307)
 14:    324.64   0.000063    0.32  0.000061  ( 0.000424 -0.000159  0.007787)
 15:    350.59   0.001220    6.16  0.001085  ( 0.028923 -0.015776  0.000242)
 16:    443.07   0.001186    5.99  0.000835  (-0.025593  0.013419  0.000102)
 17:    532.26   0.000003    0.02  0.000002  (-0.000385 -0.000055 -0.001299)
 18:    535.10   0.000041    0.21  0.000024  ( 0.004104  0.002607  0.000173)
 19:    565.04   0.002546   12.87  0.001406  (-0.001617 -0.000703  0.037460)
 20:    582.42   0.001438    7.26  0.000770  ( 0.026585  0.007752  0.001838)
 21:    616.24   0.000365    1.84  0.000185  (-0.002287 -0.013396 -0.000197)
 22:    720.15   0.000457    2.31  0.000198  (-0.000347  0.000334 -0.014067)
 23:    765.48   0.000422    2.13  0.000172  ( 0.007073  0.011038  0.000607)
 24:    920.54   0.001632    8.25  0.000553  (-0.000251  0.000162 -0.023516)
 25:    938.05   0.002117   10.70  0.000704  (-0.026265  0.003650 -0.001065)
 26:    941.47   0.002286   11.55  0.000758  (-0.001069 -0.000067  0.027507)
 27:   1015.40   0.000567    2.86  0.000174  (-0.002808  0.000414  0.012888)
 28:   1018.61   0.002415   12.20  0.000740  ( 0.025536 -0.009334  0.000791)
 29:   1033.03   0.000124    0.63  0.000038  (-0.006097  0.000565 -0.000087)
 30:   1061.78   0.000227    1.15  0.000067  (-0.000198  0.000139 -0.008173)
 31:   1113.67   0.000030    0.15  0.000009  (-0.002691  0.001108 -0.000192)
 32:   1140.76   0.002942   14.87  0.000805  ( 0.026197 -0.010888  0.000254)
 33:   1160.73   0.000029    0.15  0.000008  ( 0.000766 -0.000312  0.002681)
 34:   1181.72   0.002449   12.37  0.000647  ( 0.021698  0.013259 -0.000025)
 35:   1234.21   0.006009   30.37  0.001519  (-0.038703  0.004623 -0.000390)
 36:   1312.44   0.001408    7.11  0.000335  ( 0.001703 -0.018215  0.000230)
 37:   1323.44   0.000024    0.12  0.000006  (-0.002348  0.000226  0.000058)
 38:   1384.55   0.000711    3.59  0.000160  ( 0.012320 -0.002890 -0.000151)
 39:   1415.01   0.003842   19.42  0.000847  (-0.028938  0.003130  0.000421)
 40:   1423.10   0.000850    4.30  0.000186  ( 0.007977 -0.011080  0.000209)
 41:   1433.18   0.003733   18.86  0.000813  (-0.024189  0.015087 -0.000178)
 42:   1446.79   0.004799   24.25  0.001035  (-0.024687  0.020593  0.001223)
 43:   1464.19   0.000206    1.04  0.000044  (-0.000204  0.001114 -0.006521)
 44:   1465.17   0.000669    3.38  0.000142  (-0.011228  0.003656  0.001730)
 45:   1481.88   0.005950   30.07  0.001253  ( 0.001254  0.000549 -0.035370)
 46:   1483.02   0.004112   20.78  0.000865  ( 0.027751  0.009726  0.000807)
 47:   1487.37   0.003347   16.92  0.000702  (-0.001842  0.002206 -0.026344)
 48:   1502.86   0.008137   41.12  0.001690  (-0.041064 -0.001777 -0.000455)
 49:   1509.54   0.007608   38.45  0.001573  (-0.002986 -0.039522 -0.001376)
 50:   1581.43   0.005018   25.36  0.000990  ( 0.030136  0.009042  0.000531)
 51:   1663.24   0.017498   88.43  0.003283  (-0.051178 -0.025756 -0.000658)
 52:   3060.15   0.002681   13.55  0.000273  (-0.016536 -0.000061  0.000049)
 53:   3080.18   0.000024    0.12  0.000002  (-0.001432  0.000637 -0.000005)
 54:   3105.45   0.000040    0.20  0.000004  (-0.000866 -0.001812 -0.000049)
 55:   3117.58   0.000154    0.78  0.000015  ( 0.000033  0.000090  0.003927)
 56:   3148.50   0.000000    0.00  0.000000  (-0.000063 -0.000179 -0.000009)
 57:   3181.85   0.000360    1.82  0.000035  (-0.000409 -0.005929 -0.000141)
 58:   3197.66   0.000253    1.28  0.000025  ( 0.000030 -0.000007  0.004972)
 59:   3205.12   0.001159    5.86  0.000113  (-0.006908  0.008068  0.000074)
 60:   3221.48   0.000102    0.52  0.000010  (-0.002315 -0.002128 -0.000059)
 61:   3241.16   0.002037   10.30  0.000196  (-0.004175 -0.013369 -0.000058)
 62:   3251.13   0.003965   20.04  0.000381  ( 0.012276 -0.015163  0.000066)

* The epsilon (eps) is given for a Dirac delta lineshape.
** The dipole moment derivative (T) already includes vibrational overlap.

The first frequency considered to be a vibration is 7
The total number of vibrations considered is 56


--------------------------
THERMOCHEMISTRY AT 298.15K
--------------------------

Temperature         ... 298.15 K
Pressure            ... 1.00 atm
Total Mass          ... 137.18 AMU

Throughout the following assumptions are being made:
  (1) The electronic state is orbitally nondegenerate
      but the spin degeneracy is treated
  (2) There are no thermally accessible electronically excited states
  (3) Hindered rotations indicated by low frequency modes are not
      treated as such but are treated as vibrations and this may
      cause some error
  (4) All equations used are the standard statistical mechanics
      equations for an ideal gas
  (5) All vibrations are strictly harmonic

freq.      77.72  E(vib)   ...       0.49 
freq.     102.03  E(vib)   ...       0.46 
freq.     155.06  E(vib)   ...       0.40 
freq.     182.43  E(vib)   ...       0.37 
freq.     229.86  E(vib)   ...       0.32 
freq.     293.70  E(vib)   ...       0.27 
freq.     314.67  E(vib)   ...       0.25 
freq.     324.64  E(vib)   ...       0.24 
freq.     350.59  E(vib)   ...       0.23 
freq.     443.07  E(vib)   ...       0.17 
freq.     532.26  E(vib)   ...       0.13 
freq.     535.10  E(vib)   ...       0.13 
freq.     565.04  E(vib)   ...       0.11 
freq.     582.42  E(vib)   ...       0.11 
freq.     616.24  E(vib)   ...       0.09 
freq.     720.15  E(vib)   ...       0.07 
freq.     765.48  E(vib)   ...       0.06 
freq.     920.54  E(vib)   ...       0.03 
freq.     938.05  E(vib)   ...       0.03 
freq.     941.47  E(vib)   ...       0.03 
freq.    1015.40  E(vib)   ...       0.02 
freq.    1018.61  E(vib)   ...       0.02 
freq.    1033.03  E(vib)   ...       0.02 
freq.    1061.78  E(vib)   ...       0.02 
freq.    1113.67  E(vib)   ...       0.01 
freq.    1140.76  E(vib)   ...       0.01 
freq.    1160.73  E(vib)   ...       0.01 
freq.    1181.72  E(vib)   ...       0.01 
freq.    1234.21  E(vib)   ...       0.01 
freq.    1312.44  E(vib)   ...       0.01 
freq.    1323.44  E(vib)   ...       0.01 
freq.    1384.55  E(vib)   ...       0.00 
freq.    1415.01  E(vib)   ...       0.00 
freq.    1423.10  E(vib)   ...       0.00 
freq.    1433.18  E(vib)   ...       0.00 
freq.    1446.79  E(vib)   ...       0.00 
freq.    1464.19  E(vib)   ...       0.00 
freq.    1465.17  E(vib)   ...       0.00 
freq.    1481.88  E(vib)   ...       0.00 
freq.    1483.02  E(vib)   ...       0.00 
freq.    1487.37  E(vib)   ...       0.00 
freq.    1502.86  E(vib)   ...       0.00 
freq.    1509.54  E(vib)   ...       0.00 
freq.    1581.43  E(vib)   ...       0.00 
freq.    1663.24  E(vib)   ...       0.00 
freq.    3060.15  E(vib)   ...       0.00 
freq.    3080.18  E(vib)   ...       0.00 
freq.    3105.45  E(vib)   ...       0.00 
freq.    3117.58  E(vib)   ...       0.00 
freq.    3148.50  E(vib)   ...       0.00 
freq.    3181.85  E(vib)   ...       0.00 
freq.    3197.66  E(vib)   ...       0.00 
freq.    3205.12  E(vib)   ...       0.00 
freq.    3221.48  E(vib)   ...       0.00 
freq.    3241.16  E(vib)   ...       0.00 
freq.    3251.13  E(vib)   ...       0.00 

------------
INNER ENERGY
------------

The inner energy is: U= E(el) + E(ZPE) + E(vib) + E(rot) + E(trans)
    E(el)   - is the total energy from the electronic structure calculation
              = E(kin-el) + E(nuc-el) + E(el-el) + E(nuc-nuc)
    E(ZPE)  - the the zero temperature vibrational energy from the frequency calculation
    E(vib)  - the the finite temperature correction to E(ZPE) due to population
              of excited vibrational states
    E(rot)  - is the rotational thermal energy
    E(trans)- is the translational thermal energy

Summary of contributions to the inner energy U:
Electronic energy                ...   -441.13671862 Eh
Zero point energy                ...      0.17709996 Eh     111.13 kcal/mol
Thermal vibrational correction   ...      0.00666289 Eh       4.18 kcal/mol
Thermal rotational correction    ...      0.00141627 Eh       0.89 kcal/mol
Thermal translational correction ...      0.00141627 Eh       0.89 kcal/mol
-----------------------------------------------------------------------
Total thermal energy                   -440.95012324 Eh


Summary of corrections to the electronic energy:
(perhaps to be used in another calculation)
Total thermal correction                  0.00949543 Eh       5.96 kcal/mol
Non-thermal (ZPE) correction              0.17709996 Eh     111.13 kcal/mol
-----------------------------------------------------------------------
Total correction                          0.18659538 Eh     117.09 kcal/mol


--------
ENTHALPY
--------

The enthalpy is H = U + kB*T
                kB is Boltzmann's constant
Total free energy                 ...   -440.95012324 Eh 
Thermal Enthalpy correction       ...      0.00094421 Eh       0.59 kcal/mol
-----------------------------------------------------------------------
Total Enthalpy                    ...   -440.94917903 Eh


Note: Only C1 symmetry has been detected, increase convergence thresholds 
      if your molecule has a higher symmetry. Symmetry factor of 1.0 is   
      used for the rotational entropy correction. 
 

Note: Rotational entropy computed according to Herzberg 
Infrared and Raman Spectra, Chapter V,1, Van Nostrand Reinhold, 1945 
Point Group:  C1, Symmetry Number:   1  
Rotational constants in cm-1:     0.061054     0.042957     0.025576 

Vibrational entropy computed according to the QRRHO of S. Grimme
Chem.Eur.J. 2012 18 9955


-------
ENTROPY
-------

The entropy contributions are T*S = T*(S(el)+S(vib)+S(rot)+S(trans))
     S(el)   - electronic entropy
     S(vib)  - vibrational entropy
     S(rot)  - rotational entropy
     S(trans)- translational entropy
The entropies will be listed as multiplied by the temperature to get
units of energy

Electronic entropy                ...      0.00065446 Eh      0.41 kcal/mol
Vibrational entropy               ...      0.01120379 Eh      7.03 kcal/mol
Rotational entropy                ...      0.01404743 Eh      8.81 kcal/mol
Translational entropy             ...      0.01931898 Eh     12.12 kcal/mol
-----------------------------------------------------------------------
Final entropy term                ...      0.04522465 Eh     28.38 kcal/mol

In case the symmetry of your molecule has not been determined correctly
or in case you have a reason to use a different symmetry number we print 
out the resulting rotational entropy values for sn=1,12 :
 --------------------------------------------------------
|  sn= 1 | S(rot)=       0.01404743 Eh      8.81 kcal/mol|
|  sn= 2 | S(rot)=       0.01339297 Eh      8.40 kcal/mol|
|  sn= 3 | S(rot)=       0.01301014 Eh      8.16 kcal/mol|
|  sn= 4 | S(rot)=       0.01273852 Eh      7.99 kcal/mol|
|  sn= 5 | S(rot)=       0.01252783 Eh      7.86 kcal/mol|
|  sn= 6 | S(rot)=       0.01235568 Eh      7.75 kcal/mol|
|  sn= 7 | S(rot)=       0.01221014 Eh      7.66 kcal/mol|
|  sn= 8 | S(rot)=       0.01208406 Eh      7.58 kcal/mol|
|  sn= 9 | S(rot)=       0.01197285 Eh      7.51 kcal/mol|
|  sn=10 | S(rot)=       0.01187337 Eh      7.45 kcal/mol|
|  sn=11 | S(rot)=       0.01178338 Eh      7.39 kcal/mol|
|  sn=12 | S(rot)=       0.01170123 Eh      7.34 kcal/mol|
 --------------------------------------------------------


-------------------
GIBBS FREE ENERGY
-------------------

The Gibbs free energy is G = H - T*S

Total enthalpy                    ...   -440.94917903 Eh 
Total entropy correction          ...     -0.04522465 Eh    -28.38 kcal/mol
-----------------------------------------------------------------------
Final Gibbs free energy         ...   -440.99440368 Eh

For completeness - the Gibbs free energy minus the electronic energy
G-E(el)                           ...      0.14231494 Eh     89.30 kcal/mol


Timings for individual modules:

Sum of individual times         ...     1022.569 sec (=  17.043 min)
GTO integral calculation        ...       15.932 sec (=   0.266 min)   1.6 %
SCF iterations                  ...      310.824 sec (=   5.180 min)  30.4 %
SCF Gradient evaluation         ...       54.576 sec (=   0.910 min)   5.3 %
Geometry relaxation             ...        0.744 sec (=   0.012 min)   0.1 %
Analytical frequency calculation...      640.493 sec (=  10.675 min)  62.6 %
                             ****ORCA TERMINATED NORMALLY****
TOTAL RUN TIME: 0 days 0 hours 17 minutes 27 seconds 538 msec
