
                                 *****************
                                 * O   R   C   A *
                                 *****************

                                            #,                                       
                                            ###                                      
                                            ####                                     
                                            #####                                    
                                            ######                                   
                                           ########,                                 
                                     ,,################,,,,,                         
                               ,,#################################,,                 
                          ,,##########################################,,             
                       ,#########################################, ''#####,          
                    ,#############################################,,   '####,        
                  ,##################################################,,,,####,       
                ,###########''''           ''''###############################       
              ,#####''   ,,,,##########,,,,          '''####'''          '####       
            ,##' ,,,,###########################,,,                        '##       
           ' ,,###''''                  '''############,,,                           
         ,,##''                                '''############,,,,        ,,,,,,###''
      ,#''                                            '''#######################'''  
     '                                                          ''''####''''         
             ,#######,   #######,   ,#######,      ##                                
            ,#'     '#,  ##    ##  ,#'     '#,    #''#        ######   ,####,        
            ##       ##  ##   ,#'  ##            #'  '#       #        #'  '#        
            ##       ##  #######   ##           ,######,      #####,   #    #        
            '#,     ,#'  ##    ##  '#,     ,#' ,#      #,         ##   #,  ,#        
             '#######'   ##     ##  '#######'  #'      '#     #####' # '####'        



                  #######################################################
                  #                        -***-                        #
                  #          Department of theory and spectroscopy      #
                  #    Directorship and core code : Frank Neese         #
                  #        Max Planck Institute fuer Kohlenforschung    #
                  #                Kaiser Wilhelm Platz 1               #
                  #                 D-45470 Muelheim/Ruhr               #
                  #                      Germany                        #
                  #                                                     #
                  #                  All rights reserved                #
                  #                        -***-                        #
                  #######################################################


                         Program Version 5.0.4 -  RELEASE  -


 With contributions from (in alphabetic order):
   Daniel Aravena         : Magnetic Suceptibility
   Michael Atanasov       : Ab Initio Ligand Field Theory (pilot matlab implementation)
   Alexander A. Auer      : GIAO ZORA, VPT2 properties, NMR spectrum
   Ute Becker             : Parallelization
   Giovanni Bistoni       : ED, misc. LED, open-shell LED, HFLD
   Martin Brehm           : Molecular dynamics
   Dmytro Bykov           : SCF Hessian
   Vijay G. Chilkuri      : MRCI spin determinant printing, contributions to CSF-ICE
   Dipayan Datta          : RHF DLPNO-CCSD density
   Achintya Kumar Dutta   : EOM-CC, STEOM-CC
   Dmitry Ganyushin       : Spin-Orbit,Spin-Spin,Magnetic field MRCI
   Miquel Garcia          : C-PCM and meta-GGA Hessian, CC/C-PCM, Gaussian charge scheme
   Yang Guo               : DLPNO-NEVPT2, F12-NEVPT2, CIM, IAO-localization
   Andreas Hansen         : Spin unrestricted coupled pair/coupled cluster methods
   Benjamin Helmich-Paris : MC-RPA, TRAH-SCF, COSX integrals
   Lee Huntington         : MR-EOM, pCC
   Robert Izsak           : Overlap fitted RIJCOSX, COSX-SCS-MP3, EOM
   Marcus Kettner         : VPT2
   Christian Kollmar      : KDIIS, OOCD, Brueckner-CCSD(T), CCSD density, CASPT2, CASPT2-K
   Simone Kossmann        : Meta GGA functionals, TD-DFT gradient, OOMP2, MP2 Hessian
   Martin Krupicka        : Initial AUTO-CI
   Lucas Lang             : DCDCAS
   Marvin Lechner         : AUTO-CI (C++ implementation), FIC-MRCC
   Dagmar Lenk            : GEPOL surface, SMD
   Dimitrios Liakos       : Extrapolation schemes; Compound Job, initial MDCI parallelization
   Dimitrios Manganas     : Further ROCIS development; embedding schemes
   Dimitrios Pantazis     : SARC Basis sets
   Anastasios Papadopoulos: AUTO-CI, single reference methods and gradients
   Taras Petrenko         : DFT Hessian,TD-DFT gradient, ASA, ECA, R-Raman, ABS, FL, XAS/XES, NRVS
   Peter Pinski           : DLPNO-MP2, DLPNO-MP2 Gradient
   Christoph Reimann      : Effective Core Potentials
   Marius Retegan         : Local ZFS, SOC
   Christoph Riplinger    : Optimizer, TS searches, QM/MM, DLPNO-CCSD(T), (RO)-DLPNO pert. Triples
   Tobias Risthaus        : Range-separated hybrids, TD-DFT gradient, RPA, STAB
   Michael Roemelt        : Original ROCIS implementation
   Masaaki Saitow         : Open-shell DLPNO-CCSD energy and density
   Barbara Sandhoefer     : DKH picture change effects
   Avijit Sen             : IP-ROCIS
   Kantharuban Sivalingam : CASSCF convergence, NEVPT2, FIC-MRCI
   Bernardo de Souza      : ESD, SOC TD-DFT
   Georgi Stoychev        : AutoAux, RI-MP2 NMR, DLPNO-MP2 response
   Willem Van den Heuvel  : Paramagnetic NMR
   Boris Wezisla          : Elementary symmetry handling
   Frank Wennmohs         : Technical directorship


 We gratefully acknowledge several colleagues who have allowed us to
 interface, adapt or use parts of their codes:
   Stefan Grimme, W. Hujo, H. Kruse, P. Pracht,  : VdW corrections, initial TS optimization,
                  C. Bannwarth, S. Ehlert          DFT functionals, gCP, sTDA/sTD-DF
   Ed Valeev, F. Pavosevic, A. Kumar             : LibInt (2-el integral package), F12 methods
   Garnet Chan, S. Sharma, J. Yang, R. Olivares  : DMRG
   Ulf Ekstrom                                   : XCFun DFT Library
   Mihaly Kallay                                 : mrcc  (arbitrary order and MRCC methods)
   Jiri Pittner, Ondrej Demel                    : Mk-CCSD
   Frank Weinhold                                : gennbo (NPA and NBO analysis)
   Christopher J. Cramer and Donald G. Truhlar   : smd solvation model
   Lars Goerigk                                  : TD-DFT with DH, B97 family of functionals
   V. Asgeirsson, H. Jonsson                     : NEB implementation
   FAccTs GmbH                                   : IRC, NEB, NEB-TS, DLPNO-Multilevel, CI-OPT
                                                   MM, QMMM, 2- and 3-layer-ONIOM, Crystal-QMMM,
                                                   LR-CPCM, SF, NACMEs, symmetry and pop. for TD-DFT,
                                                   nearIR, NL-DFT gradient (VV10), updates on ESD,
                                                   ML-optimized integration grids
   S Lehtola, MJT Oliveira, MAL Marques          : LibXC Library
   Liviu Ungur et al                             : ANISO software


 Your calculation uses the libint2 library for the computation of 2-el integrals
 For citations please refer to: http://libint.valeyev.net

 Your ORCA version has been built with support for libXC version: 5.1.0
 For citations please refer to: https://tddft.org/programs/libxc/

 This ORCA versions uses:
   CBLAS   interface :  Fast vector & matrix operations
   LAPACKE interface :  Fast linear algebra routines
   SCALAPACK package :  Parallel linear algebra routines
   Shared memory     :  Shared parallel matrices
   BLAS/LAPACK       :  OpenBLAS 0.3.15  USE64BITINT DYNAMIC_ARCH NO_AFFINITY SkylakeX SINGLE_THREADED
        Core in use  :  SkylakeX
   Copyright (c) 2011-2014, The OpenBLAS Project




***************************************
The coordinates will be read from file: model.xyz
***************************************


================================================================================

----- Orbital basis set information -----
Your calculation utilizes the basis: EPR-II
   V. Barone, in Recent Advances in Density Functional Methods, Part 1 (ed. D. P. Chong), World Scientific, Singapore, 1995, p. 287.

----- AuxJ basis set information -----
Your calculation utilizes the auxiliary basis: def2/J
   F. Weigend, Phys. Chem. Chem. Phys. 8, 1057 (2006).

================================================================================
                                        WARNINGS
                       Please study these warnings very carefully!
================================================================================


WARNING: your system is open-shell and RHF/RKS was chosen
  ===> : WILL SWITCH to UHF/UKS


WARNING: Geometry Optimization
  ===> : Switching off AutoStart
         For restart on a previous wavefunction, please use MOREAD

INFO   : the flag for use of the SHARK integral package has been found!

================================================================================
                                       INPUT FILE
================================================================================
NAME = opt_EPRII.inp
|  1> ! B3LYP EPR-II OPT
|  2> %pal nprocs 16 end
|  3> *XYZFile 1 2 model.xyz
|  4> 
|  5>                          ****END OF INPUT****
================================================================================

                       *****************************
                       * Geometry Optimization Run *
                       *****************************

Geometry optimization settings:
Update method            Update   .... BFGS
Choice of coordinates    CoordSys .... Z-matrix Internals
Initial Hessian          InHess   .... Almoef's Model

Convergence Tolerances:
Energy Change            TolE     ....  5.0000e-06 Eh
Max. Gradient            TolMAXG  ....  3.0000e-04 Eh/bohr
RMS Gradient             TolRMSG  ....  1.0000e-04 Eh/bohr
Max. Displacement        TolMAXD  ....  4.0000e-03 bohr
RMS Displacement         TolRMSD  ....  2.0000e-03 bohr
Strict Convergence                ....  False
------------------------------------------------------------------------------
                        ORCA OPTIMIZATION COORDINATE SETUP
------------------------------------------------------------------------------

The optimization will be done in new redundant internal coordinates
Making redundant internal coordinates   ...  (new redundants) done
Evaluating the initial hessian          ...  (Almloef) done
Evaluating the coordinates              ...  done
Calculating the B-matrix                .... done
Calculating the G-matrix                .... done
Diagonalizing the G-matrix              .... done
The first mode is                       ....   42
The number of degrees of freedom        ....   57

    -----------------------------------------------------------------
                    Redundant Internal Coordinates


    -----------------------------------------------------------------
         Definition                    Initial Value    Approx d2E/dq
    -----------------------------------------------------------------
      1. B(C   1,N   0)                  1.4651         0.424713   
      2. B(C   2,N   0)                  1.3181         0.728747   
      3. B(C   3,C   2)                  1.3875         0.630638   
      4. B(O   4,C   3)                  1.3591         0.626931   
      5. B(C   5,C   3)                  1.3910         0.622407   
      6. B(C   6,C   5)                  1.5069         0.406605   
      7. B(C   7,C   5)                  1.3857         0.634744   
      8. B(C   8,C   7)                  1.5070         0.406447   
      9. B(C   9,C   7)                  1.3821         0.643106   
     10. B(C   9,N   0)                  1.3188         0.726950   
     11. B(H  10,C   1)                  1.0900         0.360066   
     12. B(H  11,C   1)                  1.0900         0.360131   
     13. B(H  12,C   1)                  1.0900         0.360164   
     14. B(H  13,C   2)                  1.0800         0.373612   
     15. B(H  14,C   6)                  1.0900         0.360045   
     16. B(H  15,C   6)                  1.0900         0.360152   
     17. B(H  16,C   6)                  1.0900         0.360092   
     18. B(H  17,C   8)                  1.0900         0.360089   
     19. B(H  18,C   8)                  1.0899         0.360177   
     20. B(H  19,C   8)                  1.0900         0.360125   
     21. B(H  20,C   9)                  1.0800         0.373533   
     22. A(C   2,N   0,C   9)          121.7828         0.453967   
     23. A(C   1,N   0,C   9)          119.1087         0.411985   
     24. A(C   1,N   0,C   2)          119.1080         0.412165   
     25. A(N   0,C   1,H  12)          109.4709         0.329268   
     26. A(N   0,C   1,H  11)          109.4714         0.329264   
     27. A(H  10,C   1,H  11)          109.4708         0.290839   
     28. A(H  10,C   1,H  12)          109.4750         0.290843   
     29. A(N   0,C   1,H  10)          109.4642         0.329254   
     30. A(H  11,C   1,H  12)          109.4750         0.290851   
     31. A(C   3,C   2,H  13)          119.6612         0.356145   
     32. A(N   0,C   2,H  13)          119.6587         0.362761   
     33. A(N   0,C   2,C   3)          120.6801         0.445346   
     34. A(O   4,C   3,C   5)          120.4720         0.432390   
     35. A(C   2,C   3,O   4)          120.4750         0.433413   
     36. A(C   2,C   3,C   5)          119.0530         0.435701   
     37. A(C   3,C   5,C   7)          118.3715         0.436211   
     38. A(C   3,C   5,C   6)          120.8119         0.402916   
     39. A(C   6,C   5,C   7)          120.8166         0.404314   
     40. A(H  15,C   6,H  16)          109.4681         0.290845   
     41. A(C   5,C   6,H  16)          109.4758         0.328874   
     42. A(H  14,C   6,H  15)          109.4663         0.290839   
     43. A(C   5,C   6,H  15)          109.4703         0.328883   
     44. A(H  14,C   6,H  16)          109.4724         0.290831   
     45. A(C   5,C   6,H  14)          109.4745         0.328867   
     46. A(C   8,C   7,C   9)          120.3840         0.405221   
     47. A(C   5,C   7,C   9)          119.2267         0.438791   
     48. A(C   5,C   7,C   8)          120.3888         0.404286   
     49. A(H  17,C   8,H  18)          109.4731         0.290848   
     50. A(C   7,C   8,H  18)          109.4721         0.328865   
     51. A(C   7,C   8,H  17)          109.4693         0.328852   
     52. A(H  18,C   8,H  19)          109.4760         0.290852   
     53. A(H  17,C   8,H  19)          109.4691         0.290841   
     54. A(C   7,C   8,H  19)          109.4678         0.328858   
     55. A(N   0,C   9,C   7)          120.8842         0.446728   
     56. A(C   7,C   9,H  20)          119.5582         0.357319   
     57. A(N   0,C   9,H  20)          119.5561         0.362595   
     58. D(H  11,C   1,N   0,C   2)   -150.0008         0.015379   
     59. D(H  10,C   1,N   0,C   2)     90.0039         0.015379   
     60. D(H  12,C   1,N   0,C   2)    -29.9962         0.015379   
     61. D(H  12,C   1,N   0,C   9)    149.7279         0.015379   
     62. D(H  11,C   1,N   0,C   9)     29.7233         0.015379   
     63. D(H  10,C   1,N   0,C   9)    -90.2720         0.015379   
     64. D(H  13,C   2,N   0,C   9)   -179.7399         0.044316   
     65. D(C   3,C   2,N   0,C   1)    179.9962         0.044316   
     66. D(H  13,C   2,N   0,C   1)     -0.0235         0.044316   
     67. D(C   3,C   2,N   0,C   9)      0.2798         0.044316   
     68. D(C   5,C   3,C   2,H  13)    179.9961         0.027579   
     69. D(C   5,C   3,C   2,N   0)     -0.0236         0.027579   
     70. D(O   4,C   3,C   2,H  13)      0.0227         0.027579   
     71. D(O   4,C   3,C   2,N   0)   -179.9970         0.027579   
     72. D(C   6,C   5,C   3,C   2)   -179.9788         0.026819   
     73. D(C   7,C   5,C   3,O   4)    179.9778         0.026819   
     74. D(C   7,C   5,C   3,C   2)      0.0044         0.026819   
     75. D(C   6,C   5,C   3,O   4)     -0.0054         0.026819   
     76. D(H  16,C   6,C   5,C   7)    150.0170         0.012253   
     77. D(H  16,C   6,C   5,C   3)    -30.0002         0.012253   
     78. D(H  15,C   6,C   5,C   7)     30.0186         0.012253   
     79. D(H  14,C   6,C   5,C   7)    -89.9768         0.012253   
     80. D(H  14,C   6,C   5,C   3)     90.0059         0.012253   
     81. D(H  15,C   6,C   5,C   3)   -149.9986         0.012253   
     82. D(C   9,C   7,C   5,C   6)    179.7596         0.027962   
     83. D(C   9,C   7,C   5,C   3)     -0.2236         0.027962   
     84. D(C   8,C   7,C   5,C   6)      0.0030         0.027962   
     85. D(C   8,C   7,C   5,C   3)   -179.9802         0.027962   
     86. D(H  18,C   8,C   7,C   5)   -150.0034         0.012243   
     87. D(H  17,C   8,C   7,C   9)    -89.7588         0.012243   
     88. D(H  17,C   8,C   7,C   5)     89.9949         0.012243   
     89. D(H  19,C   8,C   7,C   9)    150.2471         0.012243   
     90. D(H  19,C   8,C   7,C   5)    -29.9992         0.012243   
     91. D(H  18,C   8,C   7,C   9)     30.2429         0.012243   
     92. D(H  20,C   9,C   7,C   8)     -0.2189         0.028754   
     93. D(H  20,C   9,C   7,C   5)   -179.9755         0.028754   
     94. D(N   0,C   9,C   7,C   8)   -179.7646         0.028754   
     95. D(N   0,C   9,C   7,C   5)      0.4787         0.028754   
     96. D(H  20,C   9,N   0,C   2)    179.9432         0.044075   
     97. D(H  20,C   9,N   0,C   1)      0.2267         0.044075   
     98. D(C   7,C   9,N   0,C   2)     -0.5111         0.044075   
     99. D(C   7,C   9,N   0,C   1)    179.7725         0.044075   
    -----------------------------------------------------------------

Number of atoms                         .... 21
Number of degrees of freedom            .... 99

         *************************************************************
         *                GEOMETRY OPTIMIZATION CYCLE   1            *
         *************************************************************
---------------------------------
CARTESIAN COORDINATES (ANGSTROEM)
---------------------------------
  N     -1.639000   -0.028000   -0.002500
  C     -3.104000   -0.042300    0.001900
  C     -1.009100    1.129800   -0.013900
  C      0.377400    1.181400   -0.018300
  O      1.022600    2.377500   -0.030000
  C      1.097700   -0.008600   -0.010000
  C      2.604600    0.001200   -0.013900
  C      0.395600   -1.203200    0.002300
  C      1.130100   -2.519100    0.012100
  C     -0.986200   -1.173800    0.010600
  H     -3.470200   -0.054400   -1.024700
  H     -3.457100   -0.931500    0.524100
  H     -3.474500    0.848300    0.509400
  H     -1.578100    2.047700   -0.020200
  H      2.970600    0.012200    1.012800
  H      2.972400   -0.890700   -0.521100
  H      2.960900    0.889100   -0.536200
  H      1.309800   -2.827200    1.042100
  H      0.528800   -3.274600   -0.493500
  H      2.083000   -2.407100   -0.505100
  H     -1.538800   -2.101700    0.020600

----------------------------
CARTESIAN COORDINATES (A.U.)
----------------------------
  NO LB      ZA    FRAG     MASS         X           Y           Z
   0 N     7.0000    0    14.007   -3.097261   -0.052912   -0.004724
   1 C     6.0000    0    12.011   -5.865710   -0.079935    0.003590
   2 C     6.0000    0    12.011   -1.906923    2.135013   -0.026267
   3 C     6.0000    0    12.011    0.713183    2.232522   -0.034582
   4 O     8.0000    0    15.999    1.932434    4.492824   -0.056692
   5 C     6.0000    0    12.011    2.074352   -0.016252   -0.018897
   6 C     6.0000    0    12.011    4.921981    0.002268   -0.026267
   7 C     6.0000    0    12.011    0.747576   -2.273718    0.004346
   8 C     6.0000    0    12.011    2.135580   -4.760409    0.022866
   9 C     6.0000    0    12.011   -1.863648   -2.218161    0.020031
  10 H     1.0000    0     1.008   -6.557728   -0.102801   -1.936402
  11 H     1.0000    0     1.008   -6.532972   -1.760280    0.990405
  12 H     1.0000    0     1.008   -6.565853    1.603055    0.962626
  13 H     1.0000    0     1.008   -2.982177    3.869592   -0.038172
  14 H     1.0000    0     1.008    5.613620    0.023055    1.913915
  15 H     1.0000    0     1.008    5.617022   -1.683179   -0.984736
  16 H     1.0000    0     1.008    5.595290    1.680156   -1.013271
  17 H     1.0000    0     1.008    2.475163   -5.342634    1.969284
  18 H     1.0000    0     1.008    0.999287   -6.188097   -0.932580
  19 H     1.0000    0     1.008    3.936300   -4.548760   -0.954501
  20 H     1.0000    0     1.008   -2.907911   -3.971637    0.038928

--------------------------------
INTERNAL COORDINATES (ANGSTROEM)
--------------------------------
 N      0   0   0     0.000000000000     0.00000000     0.00000000
 C      1   0   0     1.465076397325     0.00000000     0.00000000
 C      1   2   0     1.318106524527   119.10797765     0.00000000
 C      3   1   2     1.387466817621   120.68008137   179.99623036
 O      4   3   1     1.359071425643   120.47503414   180.00299587
 C      4   3   1     1.391043126578   119.05296922   359.97637115
 C      6   4   3     1.506936913079   120.81190682   180.02122456
 C      6   4   3     1.385700133507   118.37145526     0.00000000
 C      8   6   4     1.507043164611   120.38876869   180.01979887
 C      1   2   3     1.318778635708   119.10866356   179.72411720
 H      2   1   3     1.090025875840   109.46419075    90.00390716
 H      2   1   3     1.089976646539   109.47141296   209.99920244
 H      2   1   3     1.089951769575   109.47093075   330.00378798
 H      3   1   2     1.079972731137   119.65869762   359.97650754
 H      7   6   4     1.090041233165   109.47447438    90.00592855
 H      7   6   4     1.089960682777   109.47028151   210.00135149
 H      7   6   4     1.090006142185   109.47578485   329.99975177
 H      9   8   6     1.090008119236   109.46934666    89.99493152
 H      9   8   6     1.089941879184   109.47206789   209.99661413
 H      9   8   6     1.089980848456   109.46775394   330.00084856
 H     10   1   2     1.080030170875   119.55605401     0.22674066

---------------------------
INTERNAL COORDINATES (A.U.)
---------------------------
 N      0   0   0     0.000000000000     0.00000000     0.00000000
 C      1   0   0     2.768593156217     0.00000000     0.00000000
 C      1   2   0     2.490860346690   119.10797765     0.00000000
 C      3   1   2     2.621932305207   120.68008137   179.99623036
 O      4   3   1     2.568272790904   120.47503414   180.00299587
 C      4   3   1     2.628690549706   119.05296922   359.97637115
 C      6   4   3     2.847698066816   120.81190682   180.02122456
 C      6   4   3     2.618593756065   118.37145526     0.00000000
 C      8   6   4     2.847898853112   120.38876869   180.01979887
 C      1   2   3     2.492130452755   119.10866356   179.72411720
 H      2   1   3     2.059850384225   109.46419075    90.00390716
 H      2   1   3     2.059757354328   109.47141296   209.99920244
 H      2   1   3     2.059710343680   109.47093075   330.00378798
 H      3   1   2     2.040852693952   119.65869762   359.97650754
 H      7   6   4     2.059879405364   109.47447438    90.00592855
 H      7   6   4     2.059727187191   109.47028151   210.00135149
 H      7   6   4     2.059813093021   109.47578485   329.99975177
 H      9   8   6     2.059816829106   109.46934666    89.99493152
 H      9   8   6     2.059691653550   109.47206789   209.99661413
 H      9   8   6     2.059765294800   109.46775394   330.00084856
 H     10   1   2     2.040961239326   119.55605401     0.22674066

---------------------
BASIS SET INFORMATION
---------------------
There are 4 groups of distinct atoms

 Group   1 Type N   : 10s5p1d contracted to 6s2p1d pattern {511111/41/1}
 Group   2 Type C   : 10s5p1d contracted to 6s2p1d pattern {511111/41/1}
 Group   3 Type O   : 10s5p1d contracted to 6s2p1d pattern {511111/41/1}
 Group   4 Type H   : 6s1p contracted to 4s1p pattern {3111/1}

Atom   0N    basis set group =>   1
Atom   1C    basis set group =>   2
Atom   2C    basis set group =>   2
Atom   3C    basis set group =>   2
Atom   4O    basis set group =>   3
Atom   5C    basis set group =>   2
Atom   6C    basis set group =>   2
Atom   7C    basis set group =>   2
Atom   8C    basis set group =>   2
Atom   9C    basis set group =>   2
Atom  10H    basis set group =>   4
Atom  11H    basis set group =>   4
Atom  12H    basis set group =>   4
Atom  13H    basis set group =>   4
Atom  14H    basis set group =>   4
Atom  15H    basis set group =>   4
Atom  16H    basis set group =>   4
Atom  17H    basis set group =>   4
Atom  18H    basis set group =>   4
Atom  19H    basis set group =>   4
Atom  20H    basis set group =>   4
---------------------------------
AUXILIARY/J BASIS SET INFORMATION
---------------------------------
There are 4 groups of distinct atoms

 Group   1 Type N   : 12s5p4d2f1g contracted to 6s4p3d1f1g pattern {711111/2111/211/2/1}
 Group   2 Type C   : 12s5p4d2f1g contracted to 6s4p3d1f1g pattern {711111/2111/211/2/1}
 Group   3 Type O   : 12s5p4d2f1g contracted to 6s4p3d1f1g pattern {711111/2111/211/2/1}
 Group   4 Type H   : 5s2p1d contracted to 3s1p1d pattern {311/2/1}

Atom   0N    basis set group =>   1
Atom   1C    basis set group =>   2
Atom   2C    basis set group =>   2
Atom   3C    basis set group =>   2
Atom   4O    basis set group =>   3
Atom   5C    basis set group =>   2
Atom   6C    basis set group =>   2
Atom   7C    basis set group =>   2
Atom   8C    basis set group =>   2
Atom   9C    basis set group =>   2
Atom  10H    basis set group =>   4
Atom  11H    basis set group =>   4
Atom  12H    basis set group =>   4
Atom  13H    basis set group =>   4
Atom  14H    basis set group =>   4
Atom  15H    basis set group =>   4
Atom  16H    basis set group =>   4
Atom  17H    basis set group =>   4
Atom  18H    basis set group =>   4
Atom  19H    basis set group =>   4
Atom  20H    basis set group =>   4


           ************************************************************
           *        Program running with 16 parallel MPI-processes    *
           *              working on a common directory               *
           ************************************************************
------------------------------------------------------------------------------
                           ORCA GTO INTEGRAL CALCULATION
                           -- RI-GTO INTEGRALS CHOSEN --
------------------------------------------------------------------------------
------------------------------------------------------------------------------
                   ___                                                        
                  /   \      - P O W E R E D   B Y -                         
                 /     \                                                     
                 |  |  |   _    _      __       _____    __    __             
                 |  |  |  | |  | |    /  \     |  _  \  |  |  /  |          
                  \  \/   | |  | |   /    \    | | | |  |  | /  /          
                 / \  \   | |__| |  /  /\  \   | |_| |  |  |/  /          
                |  |  |   |  __  | /  /__\  \  |    /   |      \           
                |  |  |   | |  | | |   __   |  |    \   |  |\   \          
                \     /   | |  | | |  |  |  |  | |\  \  |  | \   \       
                 \___/    |_|  |_| |__|  |__|  |_| \__\ |__|  \__/        
                                                                              
                      - O R C A' S   B I G   F R I E N D -                    
                                      &                                       
                       - I N T E G R A L  F E E D E R -                       
                                                                              
 v1 FN, 2020, v2 2021                                                         
------------------------------------------------------------------------------


Reading SHARK input file opt_EPRII.SHARKINP.tmp ... ok
----------------------
SHARK INTEGRAL PACKAGE
----------------------

Number of atoms                             ...     21
Number of basis functions                   ...    247
Number of shells                            ...    145
Maximum angular momentum                    ...      2
Integral batch strategy                     ... SHARK/LIBINT Hybrid
RI-J (if used) integral strategy            ... SPLIT-RIJ (Revised 2003 algorithm where possible)
Printlevel                                  ...      1
Contraction scheme used                     ... SEGMENTED contraction
Coulomb Range Separation                    ... NOT USED
Exchange Range Separation                   ... NOT USED
Finite Nucleus Model                        ... NOT USED
Auxiliary Coulomb fitting basis             ... AVAILABLE
   # of basis functions in Aux-J            ...    611
   # of shells in Aux-J                     ...    205
   Maximum angular momentum in Aux-J        ...      4
Auxiliary J/K fitting basis                 ... NOT available
Auxiliary Correlation fitting basis         ... NOT available
Auxiliary 'external' fitting basis          ... NOT available
Integral threshold                          ...     2.500000e-11
Primitive cut-off                           ...     2.500000e-12
Primitive pair pre-selection threshold      ...     2.500000e-12

Calculating pre-screening integrals         ... done (  0.0 sec) Dimension = 145
Organizing shell pair data                  ... done (  0.1 sec)
Shell pair information
Total number of shell pairs                 ...     10585
Shell pairs after pre-screening             ...      8265
Total number of primitive shell pairs       ...     28396
Primitive shell pairs kept                  ...     16916
          la=0 lb=0:   3818 shell pairs
          la=1 lb=0:   2761 shell pairs
          la=1 lb=1:    460 shell pairs
          la=2 lb=0:    876 shell pairs
          la=2 lb=1:    295 shell pairs
          la=2 lb=2:     55 shell pairs

Calculating one electron integrals          ... done (  0.0 sec)
Calculating RI/J V-Matrix + Cholesky decomp.... done (  0.1 sec)
Calculating Nuclear repulsion               ... done (  0.0 sec) ENN=    525.166825816432 Eh

SHARK setup successfully completed in   0.4 seconds

Maximum memory used throughout the entire GTOINT-calculation: 15.9 MB


           ************************************************************
           *        Program running with 16 parallel MPI-processes    *
           *              working on a common directory               *
           ************************************************************
-------------------------------------------------------------------------------
                                 ORCA SCF
-------------------------------------------------------------------------------

------------
SCF SETTINGS
------------
Hamiltonian:
 Density Functional     Method          .... DFT(GTOs)
 Exchange Functional    Exchange        .... B88
   X-Alpha parameter    XAlpha          ....  0.666667
   Becke's b parameter  XBeta           ....  0.004200
 Correlation Functional Correlation     .... LYP
 LDA part of GGA corr.  LDAOpt          .... VWN-5
 Gradients option       PostSCFGGA      .... off
 Hybrid DFT is turned on
   Fraction HF Exchange ScalHFX         ....  0.200000
   Scaling of DF-GGA-X  ScalDFX         ....  0.720000
   Scaling of DF-GGA-C  ScalDFC         ....  0.810000
   Scaling of DF-LDA-C  ScalLDAC        ....  1.000000
   Perturbative correction              ....  0.000000
   Density functional embedding theory  .... OFF
   NL short-range parameter             ....  4.800000
 RI-approximation to the Coulomb term is turned on
   Number of AuxJ basis functions       .... 611
   RIJ-COSX (HFX calculated with COS-X)).... on


General Settings:
 Integral files         IntName         .... opt_EPRII
 Hartree-Fock type      HFTyp           .... UHF
 Total Charge           Charge          ....    1
 Multiplicity           Mult            ....    2
 Number of Electrons    NEL             ....   73
 Basis Dimension        Dim             ....  247
 Nuclear Repulsion      ENuc            ....    525.1668258164 Eh

Convergence Acceleration:
 DIIS                   CNVDIIS         .... on
   Start iteration      DIISMaxIt       ....    12
   Startup error        DIISStart       ....  0.200000
   # of expansion vecs  DIISMaxEq       ....     5
   Bias factor          DIISBfac        ....   1.050
   Max. coefficient     DIISMaxC        ....  10.000
 Trust-Rad. Augm. Hess. CNVTRAH         .... auto
   Auto Start mean grad. ratio tolernc. ....  1.125000
   Auto Start start iteration           ....    20
   Auto Start num. interpolation iter.  ....    10
   Max. Number of Micro iterations      ....    16
   Max. Number of Macro iterations      .... Maxiter - #DIIS iter
   Number of Davidson start vectors     ....     2
   Converg. threshold I  (grad. norm)   ....   1.000e-05
   Converg. threshold II (energy diff.) ....   1.000e-08
   Grad. Scal. Fac. for Micro threshold ....   0.100
   Minimum threshold for Micro iter.    ....   0.010
   NR start threshold (gradient norm)   ....   0.001
   Initial trust radius                 ....   0.400
   Minimum AH scaling param. (alpha)    ....   1.000
   Maximum AH scaling param. (alpha)    .... 1000.000
   Orbital update algorithm             .... Taylor
   White noise on init. David. guess    .... on
   Maximum white noise                  ....   0.010
   Quad. conv. algorithm                .... NR
 SOSCF                  CNVSOSCF        .... off
 Level Shifting         CNVShift        .... on
   Level shift para.    LevelShift      ....    0.2500
   Turn off err/grad.   ShiftErr        ....    0.0010
 Zerner damping         CNVZerner       .... off
 Static damping         CNVDamp         .... on
   Fraction old density DampFac         ....    0.7000
   Max. Damping (<1)    DampMax         ....    0.9800
   Min. Damping (>=0)   DampMin         ....    0.0000
   Turn off err/grad.   DampErr         ....    0.1000
 Fernandez-Rico         CNVRico         .... off

SCF Procedure:
 Maximum # iterations   MaxIter         ....   125
 SCF integral mode      SCFMode         .... Direct
   Integral package                     .... SHARK and LIBINT hybrid scheme
 Reset frequency        DirectResetFreq ....    20
 Integral Threshold     Thresh          ....  2.500e-11 Eh
 Primitive CutOff       TCut            ....  2.500e-12 Eh

Convergence Tolerance:
 Convergence Check Mode ConvCheckMode   .... Total+1el-Energy
 Convergence forced     ConvForced      .... 0
 Energy Change          TolE            ....  1.000e-08 Eh
 1-El. energy change                    ....  1.000e-05 Eh
 DIIS Error             TolErr          ....  5.000e-07


Diagonalization of the overlap matrix:
Smallest eigenvalue                        ... 2.431e-04
Time for diagonalization                   ...    0.019 sec
Threshold for overlap eigenvalues          ... 1.000e-08
Number of eigenvalues below threshold      ... 0
Time for construction of square roots      ...    0.025 sec
Total time needed                          ...    0.044 sec

Time for model grid setup =    0.149 sec

------------------------------
INITIAL GUESS: MODEL POTENTIAL
------------------------------
Loading Hartree-Fock densities                     ... done
Calculating cut-offs                               ... done
Initializing the effective Hamiltonian             ... done
Setting up the integral package (SHARK)            ... done
Starting the Coulomb interaction                   ... done (   0.1 sec)
Reading the grid                                   ... done
Mapping shells                                     ... done
Starting the XC term evaluation                    ... done (   0.1 sec)
  promolecular density results
     # of electrons  =     73.990454276
     EX              =    -59.222817497
     EC              =     -2.481927896
     EX+EC           =    -61.704745393
Transforming the Hamiltonian                       ... done (   0.0 sec)
Diagonalizing the Hamiltonian                      ... done (   0.0 sec)
Back transforming the eigenvectors                 ... done (   0.0 sec)
Now organizing SCF variables                       ... done
                      ------------------
                      INITIAL GUESS DONE (   0.5 sec)
                      ------------------
-------------------
DFT GRID GENERATION
-------------------

General Integration Accuracy     IntAcc      ... 4.388
Radial Grid Type                 RadialGrid  ... OptM3 with GC (2021)
Angular Grid (max. ang.)         AngularGrid ... 4 (Lebedev-302)
Angular grid pruning method      GridPruning ... 4 (adaptive)
Weight generation scheme         WeightScheme... Becke
Basis function cutoff            BFCut       ... 1.0000e-11
Integration weight cutoff        WCut        ... 1.0000e-14
Angular grids for H and He will be reduced by one unit
Partially contracted basis set               ... off
Rotationally invariant grid construction     ... off

Total number of grid points                  ...    95204
Total number of batches                      ...     1498
Average number of points per batch           ...       63
Average number of grid points per atom       ...     4534
Time for grid setup =    0.457 sec

--------------------
COSX GRID GENERATION
--------------------

GRIDX 1
-------
General Integration Accuracy     IntAcc      ... 3.816
Radial Grid Type                 RadialGrid  ... OptM3 with GC (2021)
Angular Grid (max. ang.)         AngularGrid ... 1 (Lebedev-50)
Angular grid pruning method      GridPruning ... 4 (adaptive)
Weight generation scheme         WeightScheme... Becke
Basis function cutoff            BFCut       ... 1.0000e-11
Integration weight cutoff        WCut        ... 1.0000e-14
Angular grids for H and He will be reduced by one unit
Partially contracted basis set               ... on
Rotationally invariant grid construction     ... off

Total number of grid points                  ...    12220
Total number of batches                      ...      201
Average number of points per batch           ...       60
Average number of grid points per atom       ...      582
UseSFitting                                  ... on

GRIDX 2
-------
General Integration Accuracy     IntAcc      ... 4.020
Radial Grid Type                 RadialGrid  ... OptM3 with GC (2021)
Angular Grid (max. ang.)         AngularGrid ... 2 (Lebedev-110)
Angular grid pruning method      GridPruning ... 4 (adaptive)
Weight generation scheme         WeightScheme... Becke
Basis function cutoff            BFCut       ... 1.0000e-11
Integration weight cutoff        WCut        ... 1.0000e-14
Angular grids for H and He will be reduced by one unit
Partially contracted basis set               ... on
Rotationally invariant grid construction     ... off

Total number of grid points                  ...    26085
Total number of batches                      ...      418
Average number of points per batch           ...       62
Average number of grid points per atom       ...     1242
UseSFitting                                  ... on

GRIDX 3
-------
General Integration Accuracy     IntAcc      ... 4.338
Radial Grid Type                 RadialGrid  ... OptM3 with GC (2021)
Angular Grid (max. ang.)         AngularGrid ... 3 (Lebedev-194)
Angular grid pruning method      GridPruning ... 4 (adaptive)
Weight generation scheme         WeightScheme... Becke
Basis function cutoff            BFCut       ... 1.0000e-11
Integration weight cutoff        WCut        ... 1.0000e-14
Angular grids for H and He will be reduced by one unit
Partially contracted basis set               ... on
Rotationally invariant grid construction     ... off

Total number of grid points                  ...    57169
Total number of batches                      ...      903
Average number of points per batch           ...       63
Average number of grid points per atom       ...     2722
UseSFitting                                  ... on

Time for X-Grid setup             =    1.044 sec

--------------
SCF ITERATIONS
--------------
ITER       Energy         Delta-E        Max-DP      RMS-DP      [F,P]     Damp
               ***  Starting incremental Fock matrix formation  ***
  0   -440.7232055715   0.000000000000 0.07283949  0.00113816  0.1467463 0.7000
  1   -440.8359410342  -0.112735462706 0.05312747  0.00078330  0.0539892 0.7000
                               ***Turning on DIIS***
  2   -440.8750372644  -0.039096230200 0.09421495  0.00141644  0.0159596 0.0000
  3   -440.9478911097  -0.072853845332 0.03896804  0.00055638  0.0273567 0.0000
  4   -440.9617235950  -0.013832485299 0.01836575  0.00019974  0.0240567 0.0000
  5   -440.9642426435  -0.002519048440 0.01255401  0.00009237  0.0089457 0.0000
  6   -440.9650211588  -0.000778515368 0.00845069  0.00006796  0.0060138 0.0000
  7   -440.9654268108  -0.000405651962 0.00629873  0.00005115  0.0032586 0.0000
  8   -440.9656417252  -0.000214914376 0.00424553  0.00003573  0.0024796 0.0000
  9   -440.9657374566  -0.000095731407 0.00250990  0.00002241  0.0013242 0.0000
 10   -440.9657765994  -0.000039142869 0.00361401  0.00003363  0.0007614 0.0000
               *** Restarting incremental Fock matrix formation ***
                                   *** Resetting DIIS ***
 11   -440.9657593160   0.000017283468 0.00134052  0.00001928  0.0004855 0.0000
 12   -440.9657560706   0.000003245343 0.00087391  0.00001076  0.0009568 0.0000
 13   -440.9657654998  -0.000009429178 0.00075098  0.00000534  0.0001941 0.0000
 14   -440.9657668632  -0.000001363399 0.00088935  0.00000569  0.0001790 0.0000
 15   -440.9657681547  -0.000001291520 0.00130674  0.00000778  0.0001615 0.0000
 16   -440.9657695176  -0.000001362868 0.00079676  0.00000463  0.0001336 0.0000
 17   -440.9657701887  -0.000000671085 0.00092816  0.00000537  0.0001162 0.0000
 18   -440.9657708596  -0.000000670932 0.00136791  0.00000791  0.0000959 0.0000
 19   -440.9657716056  -0.000000745954 0.00156084  0.00000900  0.0000657 0.0000
 20   -440.9657721228  -0.000000517188 0.00089263  0.00000515  0.0000313 0.0000
 21   -440.9657722517  -0.000000128899 0.00037935  0.00000220  0.0000176 0.0000
 22   -440.9657722757  -0.000000024030 0.00016395  0.00000097  0.0000096 0.0000
                 **** Energy Check signals convergence ****

               *****************************************************
               *                     SUCCESS                       *
               *           SCF CONVERGED AFTER  23 CYCLES          *
               *****************************************************

Old exchange energy                            =    -11.994845090 Eh
New exchange energy                            =    -11.994881217 Eh
Exchange energy change after final integration =     -0.000036127 Eh
Total energy after final integration           =   -440.965808409 Eh
Final COS-X integration done in                =     1.754 sec

----------------
TOTAL SCF ENERGY
----------------

Total Energy       :         -440.96580841 Eh          -11999.28968 eV

Components:
Nuclear Repulsion  :          525.16682582 Eh           14290.51585 eV
Electronic Energy  :         -966.13263423 Eh          -26289.80553 eV
One Electron Energy:        -1623.88463461 Eh          -44188.14739 eV
Two Electron Energy:          657.75200039 Eh           17898.34186 eV
Max COSX asymmetry :            0.00000111 Eh               0.00003 eV

Virial components:
Potential Energy   :         -879.27661417 Eh          -23926.33306 eV
Kinetic Energy     :          438.31080576 Eh           11927.04338 eV
Virial Ratio       :            2.00605735


DFT components:
N(Alpha)           :       36.999968340176 electrons
N(Beta)            :       35.999970259924 electrons
N(Total)           :       72.999938600099 electrons
E(X)               :      -47.631401648150 Eh       
E(C)               :       -2.890731126060 Eh       
E(XC)              :      -50.522132774209 Eh       
DFET-embed. en.    :        0.000000000000 Eh       

---------------
SCF CONVERGENCE
---------------

  Last Energy change         ...   -6.3730e-09  Tolerance :   1.0000e-08
  Last MAX-Density change    ...    0.0000e+00  Tolerance :   1.0000e-07
  Last RMS-Density change    ...    0.0000e+00  Tolerance :   5.0000e-09
  Last DIIS Error            ...    7.4972e-06  Tolerance :   5.0000e-07

             **** THE GBW FILE WAS UPDATED (opt_EPRII.gbw) ****
             **** DENSITY opt_EPRII.scfp WAS UPDATED ****
             **** ENERGY FILE WAS UPDATED (opt_EPRII.en.tmp) ****
----------------------
UHF SPIN CONTAMINATION
----------------------

Warning: in a DFT calculation there is little theoretical justification to 
         calculate <S**2> as in Hartree-Fock theory. We will do it anyways
         but you should keep in mind that the values have only limited relevance

Expectation value of <S**2>     :     0.774627
Ideal value S*(S+1) for S=0.5   :     0.750000
Deviation                       :     0.024627

             **** THE GBW FILE WAS UPDATED (opt_EPRII.gbw) ****
             **** DENSITY opt_EPRII.scfp WAS UPDATED ****
----------------
ORBITAL ENERGIES
----------------
                 SPIN UP ORBITALS
  NO   OCC          E(Eh)            E(eV) 
   0   1.0000     -19.339325      -526.2498 
   1   1.0000     -14.627470      -398.0337 
   2   1.0000     -10.445573      -284.2385 
   3   1.0000     -10.442264      -284.1484 
   4   1.0000     -10.441059      -284.1157 
   5   1.0000     -10.410386      -283.2810 
   6   1.0000     -10.405324      -283.1433 
   7   1.0000     -10.401741      -283.0458 
   8   1.0000     -10.340182      -281.3707 
   9   1.0000     -10.332898      -281.1725 
  10   1.0000      -1.231759       -33.5179 
  11   1.0000      -1.183283       -32.1988 
  12   1.0000      -1.035546       -28.1786 
  13   1.0000      -0.985339       -26.8124 
  14   1.0000      -0.937801       -25.5189 
  15   1.0000      -0.900051       -24.4916 
  16   1.0000      -0.863338       -23.4926 
  17   1.0000      -0.806900       -21.9569 
  18   1.0000      -0.792731       -21.5713 
  19   1.0000      -0.727361       -19.7925 
  20   1.0000      -0.718617       -19.5546 
  21   1.0000      -0.681391       -18.5416 
  22   1.0000      -0.646110       -17.5815 
  23   1.0000      -0.634651       -17.2697 
  24   1.0000      -0.613474       -16.6935 
  25   1.0000      -0.610524       -16.6132 
  26   1.0000      -0.597744       -16.2654 
  27   1.0000      -0.581852       -15.8330 
  28   1.0000      -0.575270       -15.6539 
  29   1.0000      -0.565597       -15.3907 
  30   1.0000      -0.551958       -15.0195 
  31   1.0000      -0.546452       -14.8697 
  32   1.0000      -0.535955       -14.5841 
  33   1.0000      -0.521039       -14.1782 
  34   1.0000      -0.462431       -12.5834 
  35   1.0000      -0.454590       -12.3700 
  36   1.0000      -0.440368       -11.9830 
  37   0.0000      -0.244958        -6.6656 
  38   0.0000      -0.199745        -5.4353 
  39   0.0000      -0.137505        -3.7417 
  40   0.0000      -0.111271        -3.0278 
  41   0.0000      -0.098921        -2.6918 
  42   0.0000      -0.088828        -2.4171 
  43   0.0000      -0.077655        -2.1131 
  44   0.0000      -0.062692        -1.7059 
  45   0.0000      -0.057828        -1.5736 
  46   0.0000      -0.049268        -1.3406 
  47   0.0000      -0.034611        -0.9418 
  48   0.0000      -0.015724        -0.4279 
  49   0.0000      -0.001104        -0.0300 
  50   0.0000       0.006662         0.1813 
  51   0.0000       0.017215         0.4684 
  52   0.0000       0.019603         0.5334 
  53   0.0000       0.032147         0.8748 
  54   0.0000       0.045110         1.2275 
  55   0.0000       0.055163         1.5011 
  56   0.0000       0.060577         1.6484 
  57   0.0000       0.063185         1.7193 
  58   0.0000       0.077322         2.1040 
  59   0.0000       0.083347         2.2680 
  60   0.0000       0.098940         2.6923 
  61   0.0000       0.098988         2.6936 
  62   0.0000       0.109591         2.9821 
  63   0.0000       0.116794         3.1781 
  64   0.0000       0.126176         3.4334 
  65   0.0000       0.133211         3.6249 
  66   0.0000       0.143222         3.8973 
  67   0.0000       0.150449         4.0939 
  68   0.0000       0.158957         4.3254 
  69   0.0000       0.164635         4.4799 
  70   0.0000       0.168298         4.5796 
  71   0.0000       0.183406         4.9907 
  72   0.0000       0.198078         5.3900 
  73   0.0000       0.214123         5.8266 
  74   0.0000       0.218760         5.9528 
  75   0.0000       0.229166         6.2359 
  76   0.0000       0.239524         6.5178 
  77   0.0000       0.248738         6.7685 
  78   0.0000       0.265211         7.2167 
  79   0.0000       0.270759         7.3677 
  80   0.0000       0.286688         7.8012 
  81   0.0000       0.297610         8.0984 
  82   0.0000       0.313902         8.5417 
  83   0.0000       0.316872         8.6225 
  84   0.0000       0.330302         8.9880 
  85   0.0000       0.348103         9.4724 
  86   0.0000       0.370841        10.0911 
  87   0.0000       0.373644        10.1674 
  88   0.0000       0.406565        11.0632 
  89   0.0000       0.412255        11.2180 
  90   0.0000       0.461483        12.5576 
  91   0.0000       0.474435        12.9100 
  92   0.0000       0.482017        13.1164 
  93   0.0000       0.503455        13.6997 
  94   0.0000       0.529454        14.4072 
  95   0.0000       0.577161        15.7054 
  96   0.0000       0.585164        15.9231 
  97   0.0000       0.614150        16.7119 
  98   0.0000       0.635000        17.2792 
  99   0.0000       0.639202        17.3936 
 100   0.0000       0.653384        17.7795 
 101   0.0000       0.671333        18.2679 
 102   0.0000       0.680610        18.5203 
 103   0.0000       0.709046        19.2941 
 104   0.0000       0.718225        19.5439 
 105   0.0000       0.731883        19.9156 
 106   0.0000       0.739267        20.1165 
 107   0.0000       0.751994        20.4628 
 108   0.0000       0.758230        20.6325 
 109   0.0000       0.765972        20.8432 
 110   0.0000       0.779095        21.2002 
 111   0.0000       0.798916        21.7396 
 112   0.0000       0.801637        21.8137 
 113   0.0000       0.810080        22.0434 
 114   0.0000       0.816771        22.2255 
 115   0.0000       0.829068        22.5601 
 116   0.0000       0.849099        23.1052 
 117   0.0000       0.857771        23.3411 
 118   0.0000       0.863619        23.5003 
 119   0.0000       0.892911        24.2973 
 120   0.0000       0.897794        24.4302 
 121   0.0000       0.920194        25.0398 
 122   0.0000       0.930350        25.3161 
 123   0.0000       0.949667        25.8417 
 124   0.0000       0.955775        26.0080 
 125   0.0000       1.023668        27.8554 
 126   0.0000       1.026430        27.9306 
 127   0.0000       1.040441        28.3119 
 128   0.0000       1.079241        29.3676 
 129   0.0000       1.084131        29.5007 
 130   0.0000       1.101776        29.9809 
 131   0.0000       1.111875        30.2556 
 132   0.0000       1.159789        31.5595 
 133   0.0000       1.177667        32.0459 
 134   0.0000       1.203502        32.7490 
 135   0.0000       1.233839        33.5745 
 136   0.0000       1.253715        34.1153 
 137   0.0000       1.288754        35.0688 
 138   0.0000       1.302466        35.4419 
 139   0.0000       1.305245        35.5175 
 140   0.0000       1.327154        36.1137 
 141   0.0000       1.338864        36.4323 
 142   0.0000       1.349361        36.7180 
 143   0.0000       1.374387        37.3990 
 144   0.0000       1.390613        37.8405 
 145   0.0000       1.395208        37.9655 
 146   0.0000       1.411026        38.3960 
 147   0.0000       1.423943        38.7475 
 148   0.0000       1.431925        38.9647 
 149   0.0000       1.452629        39.5280 
 150   0.0000       1.468230        39.9526 
 151   0.0000       1.481355        40.3097 
 152   0.0000       1.502385        40.8820 
 153   0.0000       1.514366        41.2080 
 154   0.0000       1.528207        41.5846 
 155   0.0000       1.559438        42.4345 
 156   0.0000       1.567693        42.6591 
 157   0.0000       1.574232        42.8370 
 158   0.0000       1.592166        43.3250 
 159   0.0000       1.615709        43.9657 
 160   0.0000       1.644715        44.7550 
 161   0.0000       1.654064        45.0094 
 162   0.0000       1.678094        45.6633 
 163   0.0000       1.697972        46.2042 
 164   0.0000       1.753350        47.7111 
 165   0.0000       1.774679        48.2915 
 166   0.0000       1.795389        48.8550 
 167   0.0000       1.800711        48.9998 
 168   0.0000       1.821754        49.5725 
 169   0.0000       1.835279        49.9405 
 170   0.0000       1.873593        50.9831 
 171   0.0000       1.910984        52.0005 
 172   0.0000       1.921586        52.2890 
 173   0.0000       1.958713        53.2993 
 174   0.0000       1.975216        53.7484 
 175   0.0000       2.015719        54.8505 
 176   0.0000       2.030406        55.2501 
 177   0.0000       2.054094        55.8947 
 178   0.0000       2.093255        56.9604 
 179   0.0000       2.107873        57.3581 
 180   0.0000       2.142106        58.2897 
 181   0.0000       2.178357        59.2761 
 182   0.0000       2.213377        60.2290 
 183   0.0000       2.233532        60.7775 
 184   0.0000       2.235695        60.8363 
 185   0.0000       2.268313        61.7239 
 186   0.0000       2.272152        61.8284 
 187   0.0000       2.281501        62.0828 
 188   0.0000       2.308590        62.8199 
 189   0.0000       2.320948        63.1562 
 190   0.0000       2.328103        63.3509 
 191   0.0000       2.355065        64.0846 
 192   0.0000       2.360969        64.2452 
 193   0.0000       2.391432        65.0742 
 194   0.0000       2.451665        66.7132 
 195   0.0000       2.485562        67.6356 
 196   0.0000       2.487796        67.6964 
 197   0.0000       2.538284        69.0702 
 198   0.0000       2.550780        69.4103 
 199   0.0000       2.578495        70.1644 
 200   0.0000       2.742623        74.6306 
 201   0.0000       2.758219        75.0550 
 202   0.0000       3.004410        81.7541 
 203   0.0000       3.088694        84.0476 
 204   0.0000       3.304977        89.9330 
 205   0.0000       4.821301       131.1943 
 206   0.0000       4.846961       131.8925 
 207   0.0000       4.862942       132.3274 
 208   0.0000       4.877824       132.7323 
 209   0.0000       4.886869       132.9785 
 210   0.0000       4.927088       134.0729 
 211   0.0000       4.947587       134.6307 
 212   0.0000       5.037361       137.0736 
 213   0.0000       5.073589       138.0594 
 214   0.0000       5.145408       140.0137 
 215   0.0000       5.198535       141.4593 
 216   0.0000       5.246405       142.7619 
 217   0.0000       5.280888       143.7003 
 218   0.0000       5.314416       144.6126 
 219   0.0000       5.397381       146.8702 
 220   0.0000       5.461029       148.6021 
 221   0.0000       5.505808       149.8207 
 222   0.0000       5.544363       150.8698 
 223   0.0000       5.798061       157.7732 
 224   0.0000       7.121020       193.7728 
 225   0.0000       8.870597       241.3812 
 226   0.0000      29.558034       804.3150 
 227   0.0000      29.685079       807.7721 
 228   0.0000      29.750935       809.5641 
 229   0.0000      29.815184       811.3124 
 230   0.0000      29.856384       812.4335 
 231   0.0000      29.890979       813.3749 
 232   0.0000      29.962539       815.3221 
 233   0.0000      30.107336       819.2623 
 234   0.0000      36.441298       991.6181 
 235   0.0000      36.452134       991.9130 
 236   0.0000      36.483315       992.7615 
 237   0.0000      36.489033       992.9171 
 238   0.0000      36.500774       993.2366 
 239   0.0000      36.558610       994.8103 
 240   0.0000      36.617512       996.4132 
 241   0.0000      36.647072       997.2175 
 242   0.0000      36.714988       999.0656 
 243   0.0000      36.778963      1000.8065 
 244   0.0000      36.839076      1002.4422 
 245   0.0000      41.051831      1117.0771 
 246   0.0000      53.400756      1453.1084 

                 SPIN DOWN ORBITALS
  NO   OCC          E(Eh)            E(eV) 
   0   1.0000     -19.320979      -525.7506 
   1   1.0000     -14.628644      -398.0656 
   2   1.0000     -10.443235      -284.1749 
   3   1.0000     -10.441904      -284.1386 
   4   1.0000     -10.439855      -284.0829 
   5   1.0000     -10.407875      -283.2127 
   6   1.0000     -10.405284      -283.1422 
   7   1.0000     -10.402938      -283.0783 
   8   1.0000     -10.340139      -281.3695 
   9   1.0000     -10.333015      -281.1756 
  10   1.0000      -1.230088       -33.4724 
  11   1.0000      -1.147584       -31.2273 
  12   1.0000      -1.031442       -28.0670 
  13   1.0000      -0.975386       -26.5416 
  14   1.0000      -0.935815       -25.4648 
  15   1.0000      -0.898383       -24.4463 
  16   1.0000      -0.861783       -23.4503 
  17   1.0000      -0.803075       -21.8528 
  18   1.0000      -0.790656       -21.5148 
  19   1.0000      -0.725520       -19.7424 
  20   1.0000      -0.717229       -19.5168 
  21   1.0000      -0.677779       -18.4433 
  22   1.0000      -0.644034       -17.5251 
  23   1.0000      -0.631962       -17.1966 
  24   1.0000      -0.606987       -16.5170 
  25   1.0000      -0.599914       -16.3245 
  26   1.0000      -0.596785       -16.2393 
  27   1.0000      -0.574679       -15.6378 
  28   1.0000      -0.568092       -15.4586 
  29   1.0000      -0.562290       -15.3007 
  30   1.0000      -0.548041       -14.9129 
  31   1.0000      -0.533232       -14.5100 
  32   1.0000      -0.520668       -14.1681 
  33   1.0000      -0.506433       -13.7807 
  34   1.0000      -0.454658       -12.3719 
  35   1.0000      -0.436208       -11.8698 
  36   0.0000      -0.323029        -8.7901 
  37   0.0000      -0.229288        -6.2392 
  38   0.0000      -0.181518        -4.9394 
  39   0.0000      -0.137167        -3.7325 
  40   0.0000      -0.110788        -3.0147 
  41   0.0000      -0.098267        -2.6740 
  42   0.0000      -0.088422        -2.4061 
  43   0.0000      -0.076896        -2.0924 
  44   0.0000      -0.061087        -1.6623 
  45   0.0000      -0.049913        -1.3582 
  46   0.0000      -0.047796        -1.3006 
  47   0.0000      -0.033874        -0.9218 
  48   0.0000      -0.015417        -0.4195 
  49   0.0000      -0.000185        -0.0050 
  50   0.0000       0.007764         0.2113 
  51   0.0000       0.018083         0.4921 
  52   0.0000       0.020860         0.5676 
  53   0.0000       0.034066         0.9270 
  54   0.0000       0.047186         1.2840 
  55   0.0000       0.056142         1.5277 
  56   0.0000       0.062598         1.7034 
  57   0.0000       0.067745         1.8434 
  58   0.0000       0.078530         2.1369 
  59   0.0000       0.084605         2.3022 
  60   0.0000       0.099839         2.7167 
  61   0.0000       0.100387         2.7317 
  62   0.0000       0.110809         3.0153 
  63   0.0000       0.118204         3.2165 
  64   0.0000       0.128342         3.4924 
  65   0.0000       0.133803         3.6410 
  66   0.0000       0.144765         3.9393 
  67   0.0000       0.151418         4.1203 
  68   0.0000       0.160846         4.3769 
  69   0.0000       0.166067         4.5189 
  70   0.0000       0.170450         4.6382 
  71   0.0000       0.184904         5.0315 
  72   0.0000       0.199820         5.4374 
  73   0.0000       0.216678         5.8961 
  74   0.0000       0.221126         6.0171 
  75   0.0000       0.231596         6.3020 
  76   0.0000       0.240621         6.5476 
  77   0.0000       0.250621         6.8197 
  78   0.0000       0.268293         7.3006 
  79   0.0000       0.273150         7.4328 
  80   0.0000       0.288394         7.8476 
  81   0.0000       0.298854         8.1322 
  82   0.0000       0.315099         8.5743 
  83   0.0000       0.318136         8.6569 
  84   0.0000       0.331161         9.0113 
  85   0.0000       0.350466         9.5367 
  86   0.0000       0.372901        10.1472 
  87   0.0000       0.374855        10.2003 
  88   0.0000       0.407212        11.0808 
  89   0.0000       0.415360        11.3025 
  90   0.0000       0.462316        12.5802 
  91   0.0000       0.474342        12.9075 
  92   0.0000       0.485389        13.2081 
  93   0.0000       0.504921        13.7396 
  94   0.0000       0.531445        14.4613 
  95   0.0000       0.586945        15.9716 
  96   0.0000       0.595387        16.2013 
  97   0.0000       0.627580        17.0773 
  98   0.0000       0.636128        17.3099 
  99   0.0000       0.644166        17.5287 
 100   0.0000       0.655584        17.8394 
 101   0.0000       0.673066        18.3151 
 102   0.0000       0.688077        18.7235 
 103   0.0000       0.709916        19.3178 
 104   0.0000       0.721013        19.6198 
 105   0.0000       0.734630        19.9903 
 106   0.0000       0.741545        20.1785 
 107   0.0000       0.754257        20.5244 
 108   0.0000       0.760016        20.6811 
 109   0.0000       0.768589        20.9144 
 110   0.0000       0.780565        21.2403 
 111   0.0000       0.800969        21.7955 
 112   0.0000       0.803657        21.8686 
 113   0.0000       0.811441        22.0804 
 114   0.0000       0.818770        22.2799 
 115   0.0000       0.832669        22.6581 
 116   0.0000       0.852735        23.2041 
 117   0.0000       0.861170        23.4336 
 118   0.0000       0.867020        23.5928 
 119   0.0000       0.897183        24.4136 
 120   0.0000       0.899156        24.4673 
 121   0.0000       0.922521        25.1031 
 122   0.0000       0.933099        25.3909 
 123   0.0000       0.952721        25.9249 
 124   0.0000       0.956602        26.0305 
 125   0.0000       1.023914        27.8621 
 126   0.0000       1.027092        27.9486 
 127   0.0000       1.041475        28.3400 
 128   0.0000       1.081087        29.4179 
 129   0.0000       1.086140        29.5554 
 130   0.0000       1.103904        30.0387 
 131   0.0000       1.114121        30.3168 
 132   0.0000       1.161155        31.5966 
 133   0.0000       1.181093        32.1392 
 134   0.0000       1.204034        32.7634 
 135   0.0000       1.233960        33.5777 
 136   0.0000       1.254193        34.1283 
 137   0.0000       1.291117        35.1331 
 138   0.0000       1.303393        35.4671 
 139   0.0000       1.305270        35.5182 
 140   0.0000       1.328307        36.1451 
 141   0.0000       1.339841        36.4589 
 142   0.0000       1.350679        36.7538 
 143   0.0000       1.374917        37.4134 
 144   0.0000       1.391691        37.8698 
 145   0.0000       1.395924        37.9850 
 146   0.0000       1.412544        38.4373 
 147   0.0000       1.425505        38.7900 
 148   0.0000       1.432564        38.9821 
 149   0.0000       1.454209        39.5710 
 150   0.0000       1.469327        39.9824 
 151   0.0000       1.482454        40.3396 
 152   0.0000       1.505041        40.9543 
 153   0.0000       1.516015        41.2529 
 154   0.0000       1.528907        41.6037 
 155   0.0000       1.560678        42.4682 
 156   0.0000       1.569127        42.6981 
 157   0.0000       1.575495        42.8714 
 158   0.0000       1.595166        43.4067 
 159   0.0000       1.618956        44.0540 
 160   0.0000       1.653937        45.0059 
 161   0.0000       1.659212        45.1494 
 162   0.0000       1.685900        45.8757 
 163   0.0000       1.701762        46.3073 
 164   0.0000       1.755570        47.7715 
 165   0.0000       1.776750        48.3478 
 166   0.0000       1.796655        48.8895 
 167   0.0000       1.802526        49.0492 
 168   0.0000       1.823572        49.6219 
 169   0.0000       1.835896        49.9573 
 170   0.0000       1.875089        51.0238 
 171   0.0000       1.913519        52.0695 
 172   0.0000       1.924321        52.3634 
 173   0.0000       1.959613        53.3238 
 174   0.0000       1.976510        53.7836 
 175   0.0000       2.017105        54.8882 
 176   0.0000       2.032617        55.3103 
 177   0.0000       2.054866        55.9157 
 178   0.0000       2.094057        56.9822 
 179   0.0000       2.108550        57.3766 
 180   0.0000       2.143190        58.3192 
 181   0.0000       2.180625        59.3378 
 182   0.0000       2.213569        60.2343 
 183   0.0000       2.234370        60.8003 
 184   0.0000       2.236118        60.8479 
 185   0.0000       2.268620        61.7323 
 186   0.0000       2.272216        61.8301 
 187   0.0000       2.282288        62.1042 
 188   0.0000       2.309436        62.8430 
 189   0.0000       2.324592        63.2554 
 190   0.0000       2.328084        63.3504 
 191   0.0000       2.358092        64.1669 
 192   0.0000       2.363697        64.3195 
 193   0.0000       2.392442        65.1017 
 194   0.0000       2.465919        67.1011 
 195   0.0000       2.498268        67.9813 
 196   0.0000       2.535676        68.9992 
 197   0.0000       2.543387        69.2091 
 198   0.0000       2.555243        69.5317 
 199   0.0000       2.603437        70.8431 
 200   0.0000       2.744217        74.6739 
 201   0.0000       2.807854        76.4056 
 202   0.0000       3.020185        82.1834 
 203   0.0000       3.096112        84.2495 
 204   0.0000       3.312340        90.1333 
 205   0.0000       4.820819       131.1812 
 206   0.0000       4.846799       131.8881 
 207   0.0000       4.862764       132.3225 
 208   0.0000       4.878880       132.7611 
 209   0.0000       4.887449       132.9942 
 210   0.0000       4.927686       134.0891 
 211   0.0000       4.948578       134.6576 
 212   0.0000       5.036380       137.0469 
 213   0.0000       5.073744       138.0636 
 214   0.0000       5.144832       139.9980 
 215   0.0000       5.199254       141.4789 
 216   0.0000       5.249214       142.8384 
 217   0.0000       5.282557       143.7457 
 218   0.0000       5.317400       144.6938 
 219   0.0000       5.399028       146.9150 
 220   0.0000       5.461500       148.6150 
 221   0.0000       5.506638       149.8432 
 222   0.0000       5.545242       150.8937 
 223   0.0000       5.799394       157.8095 
 224   0.0000       7.119162       193.7222 
 225   0.0000       8.912753       242.5283 
 226   0.0000      29.558841       804.3370 
 227   0.0000      29.686739       807.8172 
 228   0.0000      29.752713       809.6125 
 229   0.0000      29.815299       811.3155 
 230   0.0000      29.858735       812.4975 
 231   0.0000      29.890997       813.3754 
 232   0.0000      29.962978       815.3341 
 233   0.0000      30.108048       819.2817 
 234   0.0000      36.440485       991.5960 
 235   0.0000      36.451784       991.9035 
 236   0.0000      36.483229       992.7591 
 237   0.0000      36.489494       992.9296 
 238   0.0000      36.502443       993.2820 
 239   0.0000      36.559148       994.8250 
 240   0.0000      36.614424       996.3291 
 241   0.0000      36.644764       997.1547 
 242   0.0000      36.714427       999.0503 
 243   0.0000      36.779310      1000.8159 
 244   0.0000      36.839796      1002.4618 
 245   0.0000      41.050415      1117.0386 
 246   0.0000      53.423020      1453.7143 

                    ********************************
                    * MULLIKEN POPULATION ANALYSIS *
                    ********************************

--------------------------------------------
MULLIKEN ATOMIC CHARGES AND SPIN POPULATIONS
--------------------------------------------
   0 N :    0.413845   -0.051049
   1 C :   -0.424917    0.002117
   2 C :   -0.174678    0.238879
   3 C :    0.077480   -0.120878
   4 O :   -0.191022    0.703298
   5 C :    0.228471    0.175732
   6 C :   -0.519789   -0.007674
   7 C :    0.343525   -0.077901
   8 C :   -0.530483    0.003964
   9 C :   -0.297896    0.150913
  10 H :    0.221818   -0.002130
  11 H :    0.185899   -0.001060
  12 H :    0.189916   -0.000353
  13 H :    0.193040   -0.011722
  14 H :    0.208006    0.007782
  15 H :    0.158699    0.001808
  16 H :    0.201077    0.002781
  17 H :    0.203692   -0.003842
  18 H :    0.165820   -0.000992
  19 H :    0.168864   -0.001174
  20 H :    0.178633   -0.008498
Sum of atomic charges         :    1.0000000
Sum of atomic spin populations:    1.0000000

-----------------------------------------------------
MULLIKEN REDUCED ORBITAL CHARGES AND SPIN POPULATIONS
-----------------------------------------------------
CHARGE
  0 N s       :     3.212031  s :     3.212031
      pz      :     1.347111  p :     3.316846
      px      :     1.009462
      py      :     0.960273
      dz2     :     0.002849  d :     0.057278
      dxz     :     0.006930
      dyz     :     0.010409
      dx2y2   :     0.017814
      dxy     :     0.019277
  1 C s       :     3.225809  s :     3.225809
      pz      :     1.181214  p :     3.116327
      px      :     0.773811
      py      :     1.161302
      dz2     :     0.016691  d :     0.082780
      dxz     :     0.014848
      dyz     :     0.012948
      dx2y2   :     0.024621
      dxy     :     0.013673
  2 C s       :     3.178831  s :     3.178831
      pz      :     0.879177  p :     2.900522
      px      :     1.031695
      py      :     0.989650
      dz2     :     0.005772  d :     0.095325
      dxz     :     0.012368
      dyz     :     0.012982
      dx2y2   :     0.030569
      dxy     :     0.033634
  3 C s       :     3.069121  s :     3.069121
      pz      :     0.947993  p :     2.711429
      px      :     0.911998
      py      :     0.851438
      dz2     :     0.006368  d :     0.141971
      dxz     :     0.011757
      dyz     :     0.017839
      dx2y2   :     0.059651
      dxy     :     0.046356
  4 O s       :     3.974133  s :     3.974133
      pz      :     1.128576  p :     4.203620
      px      :     1.712409
      py      :     1.362635
      dz2     :     0.001999  d :     0.013268
      dxz     :     0.000736
      dyz     :     0.002403
      dx2y2   :     0.003433
      dxy     :     0.004697
  5 C s       :     3.085911  s :     3.085911
      pz      :     0.812327  p :     2.599333
      px      :     0.878761
      py      :     0.908245
      dz2     :     0.004528  d :     0.086285
      dxz     :     0.014385
      dyz     :     0.010222
      dx2y2   :     0.024203
      dxy     :     0.032947
  6 C s       :     3.236570  s :     3.236570
      pz      :     1.132744  p :     3.218615
      px      :     0.942134
      py      :     1.143736
      dz2     :     0.014337  d :     0.064604
      dxz     :     0.008907
      dyz     :     0.012472
      dx2y2   :     0.018476
      dxy     :     0.010412
  7 C s       :     3.007573  s :     3.007573
      pz      :     0.912911  p :     2.563104
      px      :     0.830644
      py      :     0.819549
      dz2     :     0.004554  d :     0.085799
      dxz     :     0.009927
      dyz     :     0.012385
      dx2y2   :     0.032559
      dxy     :     0.026373
  8 C s       :     3.244070  s :     3.244070
      pz      :     1.137374  p :     3.220249
      px      :     1.093374
      py      :     0.989502
      dz2     :     0.014736  d :     0.066163
      dxz     :     0.012196
      dyz     :     0.010768
      dx2y2   :     0.012357
      dxy     :     0.016106
  9 C s       :     3.212210  s :     3.212210
      pz      :     0.916501  p :     2.985459
      px      :     1.035740
      py      :     1.033218
      dz2     :     0.005743  d :     0.100227
      dxz     :     0.012845
      dyz     :     0.012220
      dx2y2   :     0.029863
      dxy     :     0.039556
 10 H s       :     0.759689  s :     0.759689
      pz      :     0.010140  p :     0.018493
      px      :     0.003763
      py      :     0.004590
 11 H s       :     0.795259  s :     0.795259
      pz      :     0.006194  p :     0.018841
      px      :     0.004046
      py      :     0.008601
 12 H s       :     0.791246  s :     0.791246
      pz      :     0.006104  p :     0.018838
      px      :     0.004097
      py      :     0.008637
 13 H s       :     0.785128  s :     0.785128
      pz      :     0.004832  p :     0.021832
      px      :     0.006013
      py      :     0.010987
 14 H s       :     0.771434  s :     0.771434
      pz      :     0.009700  p :     0.020560
      px      :     0.005967
      py      :     0.004894
 15 H s       :     0.820121  s :     0.820121
      pz      :     0.005937  p :     0.021180
      px      :     0.006212
      py      :     0.009030
 16 H s       :     0.778976  s :     0.778976
      pz      :     0.005543  p :     0.019947
      px      :     0.005226
      py      :     0.009178
 17 H s       :     0.776231  s :     0.776231
      pz      :     0.009598  p :     0.020077
      px      :     0.004901
      py      :     0.005578
 18 H s       :     0.814493  s :     0.814493
      pz      :     0.005776  p :     0.019687
      px      :     0.005719
      py      :     0.008193
 19 H s       :     0.809950  s :     0.809950
      pz      :     0.005936  p :     0.021186
      px      :     0.009573
      py      :     0.005677
 20 H s       :     0.799444  s :     0.799444
      pz      :     0.005130  p :     0.021923
      px      :     0.006155
      py      :     0.010637

SPIN
  0 N s       :    -0.002838  s :    -0.002838
      pz      :    -0.041403  p :    -0.051752
      px      :    -0.003628
      py      :    -0.006721
      dz2     :     0.000080  d :     0.003542
      dxz     :     0.000090
      dyz     :     0.003249
      dx2y2   :     0.000066
      dxy     :     0.000056
  1 C s       :     0.000324  s :     0.000324
      pz      :     0.000351  p :     0.002259
      px      :     0.001212
      py      :     0.000696
      dz2     :    -0.000043  d :    -0.000466
      dxz     :    -0.000387
      dyz     :     0.000072
      dx2y2   :    -0.000017
      dxy     :    -0.000091
  2 C s       :     0.013689  s :     0.013689
      pz      :     0.213413  p :     0.227179
      px      :     0.007771
      py      :     0.005994
      dz2     :    -0.000773  d :    -0.001989
      dxz     :    -0.000536
      dyz     :    -0.000519
      dx2y2   :     0.000040
      dxy     :    -0.000202
  3 C s       :    -0.014826  s :    -0.014826
      pz      :    -0.104160  p :    -0.122171
      px      :    -0.008358
      py      :    -0.009652
      dz2     :     0.000138  d :     0.016118
      dxz     :     0.005133
      dyz     :     0.011678
      dx2y2   :    -0.000593
      dxy     :    -0.000238
  4 O s       :     0.000988  s :     0.000988
      pz      :     0.675033  p :     0.702363
      px      :     0.010767
      py      :     0.016562
      dz2     :     0.000048  d :    -0.000053
      dxz     :    -0.000036
      dyz     :    -0.000087
      dx2y2   :     0.000013
      dxy     :     0.000009
  5 C s       :     0.009710  s :     0.009710
      pz      :     0.157258  p :     0.167418
      px      :     0.006830
      py      :     0.003331
      dz2     :    -0.000539  d :    -0.001396
      dxz     :     0.000788
      dyz     :    -0.001444
      dx2y2   :    -0.000232
      dxy     :     0.000031
  6 C s       :    -0.002253  s :    -0.002253
      pz      :    -0.000308  p :    -0.007263
      px      :    -0.005580
      py      :    -0.001375
      dz2     :     0.000219  d :     0.001841
      dxz     :     0.001522
      dyz     :     0.000013
      dx2y2   :     0.000066
      dxy     :     0.000022
  7 C s       :    -0.006235  s :    -0.006235
      pz      :    -0.063612  p :    -0.075273
      px      :    -0.005775
      py      :    -0.005886
      dz2     :     0.000205  d :     0.003608
      dxz     :     0.002009
      dyz     :     0.001314
      dx2y2   :    -0.000015
      dxy     :     0.000095
  8 C s       :     0.001030  s :     0.001030
      pz      :     0.001201  p :     0.003871
      px      :     0.000888
      py      :     0.001781
      dz2     :    -0.000097  d :    -0.000936
      dxz     :    -0.000208
      dyz     :    -0.000523
      dx2y2   :    -0.000061
      dxy     :    -0.000049
  9 C s       :     0.009769  s :     0.009769
      pz      :     0.131566  p :     0.142290
      px      :     0.005429
      py      :     0.005295
      dz2     :    -0.000534  d :    -0.001146
      dxz     :    -0.000432
      dyz     :    -0.000193
      dx2y2   :    -0.000110
      dxy     :     0.000122
 10 H s       :    -0.002135  s :    -0.002135
      pz      :    -0.000004  p :     0.000005
      px      :     0.000011
      py      :    -0.000002
 11 H s       :    -0.001076  s :    -0.001076
      pz      :     0.000003  p :     0.000015
      px      :     0.000010
      py      :     0.000002
 12 H s       :    -0.000368  s :    -0.000368
      pz      :     0.000010  p :     0.000015
      px      :     0.000010
      py      :    -0.000006
 13 H s       :    -0.012794  s :    -0.012794
      pz      :     0.001160  p :     0.001072
      px      :    -0.000019
      py      :    -0.000069
 14 H s       :     0.007808  s :     0.007808
      pz      :     0.000003  p :    -0.000027
      px      :    -0.000044
      py      :     0.000014
 15 H s       :     0.001866  s :     0.001866
      pz      :    -0.000016  p :    -0.000058
      px      :    -0.000037
      py      :    -0.000005
 16 H s       :     0.002863  s :     0.002863
      pz      :    -0.000016  p :    -0.000082
      px      :    -0.000036
      py      :    -0.000029
 17 H s       :    -0.003849  s :    -0.003849
      pz      :    -0.000006  p :     0.000007
      px      :     0.000001
      py      :     0.000012
 18 H s       :    -0.001010  s :    -0.001010
      pz      :     0.000003  p :     0.000018
      px      :    -0.000001
      py      :     0.000016
 19 H s       :    -0.001194  s :    -0.001194
      pz      :     0.000004  p :     0.000019
      px      :     0.000008
      py      :     0.000006
 20 H s       :    -0.009289  s :    -0.009289
      pz      :     0.000847  p :     0.000791
      px      :    -0.000019
      py      :    -0.000036


                     *******************************
                     * LOEWDIN POPULATION ANALYSIS *
                     *******************************

-------------------------------------------
LOEWDIN ATOMIC CHARGES AND SPIN POPULATIONS
-------------------------------------------
   0 N :    0.168349   -0.031233
   1 C :    0.076011    0.000455
   2 C :    0.088679    0.189425
   3 C :   -0.067128   -0.058525
   4 O :   -0.024386    0.685106
   5 C :    0.024320    0.130769
   6 C :    0.014606    0.000860
   7 C :   -0.045916   -0.045657
[...]
  7 C s       :    -0.008634  s :    -0.008634
      pz      :    -0.090541  p :    -0.108373
      px      :    -0.008828
      py      :    -0.009004
      dz2     :     0.000300  d :     0.005306
      dxz     :     0.003032
      dyz     :     0.001826
      dx2y2   :    -0.000014
      dxy     :     0.000161
  8 C s       :     0.001668  s :     0.001668
      pz      :     0.002285  p :     0.006186
      px      :     0.001589
      py      :     0.002312
      dz2     :    -0.000034  d :    -0.001392
      dxz     :    -0.000730
      dyz     :    -0.000495
      dx2y2   :    -0.000058
      dxy     :    -0.000074
  9 C s       :     0.015341  s :     0.015341
      pz      :     0.199480  p :     0.216644
      px      :     0.008943
      py      :     0.008221
      dz2     :    -0.000805  d :    -0.001586
      dxz     :    -0.000605
      dyz     :    -0.000221
      dx2y2   :    -0.000126
      dxy     :     0.000172
 10 H s       :    -0.003025  s :    -0.003025
      pz      :     0.000003  p :     0.000041
      px      :     0.000023
      py      :     0.000014
 11 H s       :    -0.002942  s :    -0.002942
      pz      :     0.000005  p :     0.000042
      px      :     0.000023
      py      :     0.000015
 12 H s       :    -0.000450  s :    -0.000450
      pz      :     0.000021  p :     0.000027
      px      :     0.000009
      py      :    -0.000003
 13 H s       :    -0.016558  s :    -0.016558
      pz      :     0.001592  p :     0.001486
      px      :    -0.000031
      py      :    -0.000075
 14 H s       :     0.011603  s :     0.011603
      pz      :    -0.000008  p :    -0.000050
      px      :    -0.000070
      py      :     0.000027
 15 H s       :     0.012346  s :     0.012346
      pz      :    -0.000003  p :    -0.000047
      px      :    -0.000071
      py      :     0.000027
 16 H s       :    -0.000472  s :    -0.000472
      pz      :     0.000011  p :    -0.000079
      px      :    -0.000051
      py      :    -0.000039
 17 H s       :    -0.004355  s :    -0.004355
      pz      :     0.000001  p :     0.000018
      px      :     0.000009
      py      :     0.000008
 18 H s       :    -0.000493  s :    -0.000493
      pz      :     0.000006  p :     0.000025
      px      :     0.000009
      py      :     0.000011
 19 H s       :    -0.004317  s :    -0.004317
      pz      :     0.000001  p :     0.000018
      px      :     0.000009
      py      :     0.000008
 20 H s       :    -0.013941  s :    -0.013941
      pz      :     0.001286  p :     0.001202
      px      :    -0.000031
      py      :    -0.000052


                     *******************************
                     * LOEWDIN POPULATION ANALYSIS *
                     *******************************

-------------------------------------------
LOEWDIN ATOMIC CHARGES AND SPIN POPULATIONS
-------------------------------------------
   0 N :    0.145208   -0.048952
   1 C :    0.079230    0.000999
   2 C :    0.107948    0.253844
   3 C :   -0.088843   -0.042818
   4 O :   -0.017099    0.478055
   5 C :    0.037569    0.217613
   6 C :    0.002818    0.004254
   7 C :   -0.049561   -0.065759
   8 C :   -0.001851   -0.000270
   9 C :    0.062733    0.191324
  10 H :    0.060222   -0.002062
  11 H :    0.059824   -0.001987
  12 H :    0.056358   -0.000121
  13 H :    0.084361    0.000376
  14 H :    0.070131    0.010741
  15 H :    0.071709    0.011447
  16 H :    0.065326    0.000120
  17 H :    0.062490   -0.003630
  18 H :    0.051240   -0.000248
  19 H :    0.062543   -0.003601
  20 H :    0.077645    0.000675

----------------------------------------------------
LOEWDIN REDUCED ORBITAL CHARGES AND SPIN POPULATIONS
----------------------------------------------------
CHARGE
  0 N s       :     3.062964  s :     3.062964
      pz      :     1.277913  p :     3.665396
      px      :     1.183803
      py      :     1.203680
      dz2     :     0.006249  d :     0.126431
      dxz     :     0.012351
      dyz     :     0.021453
      dx2y2   :     0.043342
      dxy     :     0.043035
  1 C s       :     2.858314  s :     2.858314
      pz      :     1.061607  p :     2.922590
      px      :     0.797963
      py      :     1.063020
      dz2     :     0.025583  d :     0.139866
      dxz     :     0.027944
      dyz     :     0.015710
      dx2y2   :     0.049996
      dxy     :     0.020632
  2 C s       :     2.867857  s :     2.867857
      pz      :     0.831402  p :     2.807553
      px      :     1.025667
      py      :     0.950484
      dz2     :     0.016869  d :     0.216642
      dxz     :     0.026082
      dyz     :     0.028359
      dx2y2   :     0.069361
      dxy     :     0.075972
  3 C s       :     2.830923  s :     2.830923
      pz      :     0.874626  p :     2.860318
      px      :     1.004437
      py      :     0.981256
      dz2     :     0.023732  d :     0.397602
      dxz     :     0.026980
      dyz     :     0.051577
      dx2y2   :     0.166057
      dxy     :     0.129255
  4 O s       :     3.604001  s :     3.604001
      pz      :     1.188540  p :     4.381921
      px      :     1.706729
      py      :     1.486652
      dz2     :     0.004552  d :     0.031177
      dxz     :     0.001343
      dyz     :     0.005391
      dx2y2   :     0.009165
      dxy     :     0.010726
  5 C s       :     2.873642  s :     2.873642
      pz      :     0.780155  p :     2.863741
      px      :     1.050536
      py      :     1.033051
      dz2     :     0.014367  d :     0.225047
      dxz     :     0.031543
      dyz     :     0.022163
      dx2y2   :     0.071391
      dxy     :     0.085583
  6 C s       :     2.846830  s :     2.846830
      pz      :     1.026604  p :     3.037387
      px      :     0.964905
      py      :     1.045878
      dz2     :     0.019587  d :     0.112964
      dxz     :     0.018842
      dyz     :     0.014276
      dx2y2   :     0.037305
      dxy     :     0.022955
  7 C s       :     2.852942  s :     2.852942
      pz      :     0.888152  p :     2.964300
      px      :     1.035000
      py      :     1.041148
      dz2     :     0.013924  d :     0.232319
      dxz     :     0.027602
      dyz     :     0.028125
      dx2y2   :     0.087590
      dxy     :     0.075077
  8 C s       :     2.849439  s :     2.849439
      pz      :     1.042883  p :     3.038750
      px      :     1.023093
      py      :     0.972774
      dz2     :     0.020130  d :     0.113662
      dxz     :     0.024953
      dyz     :     0.010888
      dx2y2   :     0.021482
      dxy     :     0.036209
  9 C s       :     2.850652  s :     2.850652
      pz      :     0.902855  p :     2.863437
      px      :     1.030502
      py      :     0.930080
      dz2     :     0.015287  d :     0.223178
      dxz     :     0.030863
      dyz     :     0.023159
      dx2y2   :     0.061140
      dxy     :     0.092730
 10 H s       :     0.857681  s :     0.857681
      pz      :     0.042612  p :     0.082097
      px      :     0.015102
      py      :     0.024382
 11 H s       :     0.858097  s :     0.858097
      pz      :     0.040210  p :     0.082080
      px      :     0.015667
      py      :     0.026203
 12 H s       :     0.861738  s :     0.861738
      pz      :     0.017408  p :     0.081905
      px      :     0.017069
      py      :     0.047427
 13 H s       :     0.828096  s :     0.828096
      pz      :     0.015834  p :     0.087543
      px      :     0.025320
      py      :     0.046389
 14 H s       :     0.847938  s :     0.847938
      pz      :     0.037182  p :     0.081930
      px      :     0.019656
      py      :     0.025093
 15 H s       :     0.846441  s :     0.846441
      pz      :     0.038274  p :     0.081850
      px      :     0.019978
      py      :     0.023598
 16 H s       :     0.849011  s :     0.849011
      pz      :     0.016300  p :     0.085663
      px      :     0.018736
      py      :     0.050627
 17 H s       :     0.855701  s :     0.855701
      pz      :     0.038678  p :     0.081809
      px      :     0.027671
      py      :     0.015459
 18 H s       :     0.867410  s :     0.867410
      pz      :     0.017148  p :     0.081349
      px      :     0.029326
      py      :     0.034876
 19 H s       :     0.855640  s :     0.855640
      pz      :     0.037859  p :     0.081817
      px      :     0.028567
      py      :     0.015391
 20 H s       :     0.836377  s :     0.836377
      pz      :     0.017526  p :     0.085978
      px      :     0.025384
      py      :     0.043068

SPIN
  0 N s       :    -0.002933  s :    -0.002933
      pz      :    -0.048949  p :    -0.056955
      px      :    -0.002910
      py      :    -0.005096
      dz2     :     0.000152  d :     0.010936
      dxz     :     0.000450
      dyz     :     0.009504
      dx2y2   :     0.000344
      dxy     :     0.000486
  1 C s       :     0.000237  s :     0.000237
      pz      :     0.001022  p :     0.002775
      px      :     0.001571
      py      :     0.000182
      dz2     :    -0.000055  d :    -0.002013
      dxz     :    -0.001410
      dyz     :    -0.000277
      dx2y2   :    -0.000103
      dxy     :    -0.000167
  2 C s       :     0.007407  s :     0.007407
      pz      :     0.242894  p :     0.252737
      px      :     0.005189
      py      :     0.004654
      dz2     :    -0.000867  d :    -0.006300
      dxz     :    -0.002142
      dyz     :    -0.001752
      dx2y2   :    -0.000595
      dxy     :    -0.000944
  3 C s       :    -0.006619  s :    -0.006619
      pz      :    -0.064544  p :    -0.081556
      px      :    -0.008173
      py      :    -0.008839
      dz2     :     0.000436  d :     0.045357
      dxz     :     0.011869
      dyz     :     0.031993
      dx2y2   :     0.000390
      dxy     :     0.000669
  4 O s       :     0.005248  s :     0.005248
      pz      :     0.463907  p :     0.473839
      px      :     0.004237
      py      :     0.005696
      dz2     :     0.000078  d :    -0.001032
      dxz     :    -0.000156
      dyz     :    -0.000669
      dx2y2   :    -0.000126
      dxy     :    -0.000159
  5 C s       :     0.006702  s :     0.006702
      pz      :     0.206650  p :     0.216274
      px      :     0.004933
      py      :     0.004691
      dz2     :    -0.000980  d :    -0.005364
      dxz     :     0.000869
      dyz     :    -0.003843
      dx2y2   :    -0.000852
      dxy     :    -0.000557
  6 C s       :    -0.001307  s :    -0.001307
      pz      :     0.003744  p :    -0.002481
      px      :    -0.005093
      py      :    -0.001132
      dz2     :     0.000196  d :     0.008042
      dxz     :     0.006896
      dyz     :     0.000483
      dx2y2   :     0.000341
      dxy     :     0.000127
  7 C s       :    -0.003866  s :    -0.003866
      pz      :    -0.070386  p :    -0.079117
      px      :    -0.004820
      py      :    -0.003911
      dz2     :     0.000423  d :     0.017224
      dxz     :     0.010171
      dyz     :     0.005219
      dx2y2   :     0.000697
      dxy     :     0.000715
  8 C s       :     0.000381  s :     0.000381
      pz      :     0.000348  p :     0.002557
      px      :     0.000771
      py      :     0.001438
      dz2     :    -0.000078  d :    -0.003209
      dxz     :    -0.001412
      dyz     :    -0.001360
      dx2y2   :    -0.000161
      dxy     :    -0.000199
  9 C s       :     0.006319  s :     0.006319
      pz      :     0.181763  p :     0.190410
      px      :     0.004717
      py      :     0.003930
      dz2     :    -0.000723  d :    -0.005404
      dxz     :    -0.002226
      dyz     :    -0.001319
      dx2y2   :    -0.000614
      dxy     :    -0.000522
 10 H s       :    -0.002269  s :    -0.002269
      pz      :     0.000065  p :     0.000207
      px      :     0.000068
      py      :     0.000075
 11 H s       :    -0.002188  s :    -0.002188
      pz      :     0.000058  p :     0.000201
      px      :     0.000067
      py      :     0.000076
 12 H s       :    -0.000261  s :    -0.000261
      pz      :     0.000094  p :     0.000141
      px      :     0.000037
      py      :     0.000010
 13 H s       :    -0.007148  s :    -0.007148
      pz      :     0.006302  p :     0.007523
      px      :     0.000383
      py      :     0.000838
 14 H s       :     0.011092  s :     0.011092
      pz      :    -0.000186  p :    -0.000350
      px      :    -0.000213
      py      :     0.000048
 15 H s       :     0.011818  s :     0.011818
      pz      :    -0.000198  p :    -0.000371
      px      :    -0.000219
      py      :     0.000047
 16 H s       :     0.000069  s :     0.000069
      pz      :     0.000323  p :     0.000051
      px      :    -0.000140
      py      :    -0.000132
 17 H s       :    -0.003793  s :    -0.003793
      pz      :     0.000065  p :     0.000163
      px      :     0.000064
      py      :     0.000034
 18 H s       :    -0.000325  s :    -0.000325
      pz      :     0.000008  p :     0.000077
      px      :     0.000029
      py      :     0.000040
 19 H s       :    -0.003764  s :    -0.003764
      pz      :     0.000063  p :     0.000162
      px      :     0.000066
      py      :     0.000033
 20 H s       :    -0.005707  s :    -0.005707
      pz      :     0.005381  p :     0.006382
      px      :     0.000309
      py      :     0.000691


                      *****************************
                      * MAYER POPULATION ANALYSIS *
                      *****************************

  NA   - Mulliken gross atomic population
  ZA   - Total nuclear charge
  QA   - Mulliken gross atomic charge
  VA   - Mayer's total valence
  BVA  - Mayer's bonded valence
  FA   - Mayer's free valence

  ATOM       NA         ZA         QA         VA         BVA        FA
  0 N      6.6619     7.0000     0.3381     3.5889     3.5850     0.0039
  1 C      6.4120     6.0000    -0.4120     3.8373     3.8373     0.0000
  2 C      6.1777     6.0000    -0.1777     3.9712     3.8934     0.0778
  3 C      5.9067     6.0000     0.0933     4.1441     4.1326     0.0115
  4 O      8.1774     8.0000    -0.1774     2.1883     1.9514     0.2369
  5 C      5.7971     6.0000     0.2029     3.8502     3.7878     0.0624
  6 C      6.5365     6.0000    -0.5365     3.8358     3.8356     0.0002
  7 C      5.6285     6.0000     0.3715     3.8467     3.8384     0.0083
  8 C      6.5372     6.0000    -0.5372     3.8512     3.8512     0.0000
  9 C      6.2713     6.0000    -0.2713     4.1008     4.0596     0.0412
 10 H      0.7882     1.0000     0.2118     0.9447     0.9447     0.0000
 11 H      0.7907     1.0000     0.2093     0.9461     0.9461     0.0000
 12 H      0.8182     1.0000     0.1818     0.9636     0.9636     0.0000
 13 H      0.8057     1.0000     0.1943     0.9474     0.9471     0.0003
 14 H      0.8113     1.0000     0.1887     0.9605     0.9603     0.0001
 15 H      0.8086     1.0000     0.1914     0.9596     0.9595     0.0002
 16 H      0.7945     1.0000     0.2055     0.9626     0.9626     0.0000
 17 H      0.8081     1.0000     0.1919     0.9587     0.9586     0.0000
 18 H      0.8373     1.0000     0.1627     0.9692     0.9692     0.0000
 19 H      0.8084     1.0000     0.1916     0.9586     0.9586     0.0000
 20 H      0.8228     1.0000     0.1772     0.9529     0.9527     0.0002

  Mayer bond orders larger than 0.100000
B(  0-N ,  1-C ) :   0.9065 B(  0-N ,  2-C ) :   1.4415 B(  0-N ,  9-C ) :   1.2647 
B(  1-C , 10-H ) :   0.9390 B(  1-C , 11-H ) :   0.9403 B(  1-C , 12-H ) :   0.9517 
B(  2-C ,  3-C ) :   1.1747 B(  2-C ,  4-O ) :   0.1095 B(  2-C ,  9-C ) :   0.1109 
B(  2-C , 13-H ) :   0.9287 B(  3-C ,  4-O ) :   1.6940 B(  3-C ,  5-C ) :   1.1463 
B(  5-C ,  6-C ) :   0.9248 B(  5-C ,  7-C ) :   1.4543 B(  5-C ,  9-C ) :   0.1525 
B(  6-C , 14-H ) :   0.9357 B(  6-C , 15-H ) :   0.9335 B(  6-C , 16-H ) :   0.9509 
B(  7-C ,  8-C ) :   0.8957 B(  7-C ,  9-C ) :   1.4318 B(  8-C , 17-H ) :   0.9453 
B(  8-C , 18-H ) :   0.9703 B(  8-C , 19-H ) :   0.9452 B(  9-C , 20-H ) :   0.9276 


-------
TIMINGS
-------

Total SCF time: 0 days 0 hours 0 min 22 sec 

Total time                  ....      22.072 sec
Sum of individual times     ....      20.295 sec  ( 92.0%)

Fock matrix formation       ....      17.849 sec  ( 80.9%)
  Split-RI-J                ....       1.899 sec  ( 10.6% of F)
  Chain of spheres X        ....       8.189 sec  ( 45.9% of F)
  XC integration            ....       5.047 sec  ( 28.3% of F)
    Basis function eval.    ....       0.331 sec  (  6.6% of XC)
    Density eval.           ....       0.442 sec  (  8.8% of XC)
    XC-Functional eval.     ....       0.113 sec  (  2.2% of XC)
    XC-Potential eval.      ....       0.346 sec  (  6.9% of XC)
Diagonalization             ....       0.408 sec  (  1.8%)
Density matrix formation    ....       0.050 sec  (  0.2%)
Population analysis         ....       0.225 sec  (  1.0%)
Initial guess               ....       0.048 sec  (  0.2%)
Orbital Transformation      ....       0.000 sec  (  0.0%)
Orbital Orthonormalization  ....       0.032 sec  (  0.1%)
DIIS solution               ....       0.358 sec  (  1.6%)
Grid generation             ....       1.358 sec  (  6.2%)

Maximum memory used throughout the entire SCF-calculation: 64.6 MB

-------------------------   --------------------
FINAL SINGLE POINT ENERGY      -440.986442090837
-------------------------   --------------------

                                *** OPTIMIZATION RUN DONE ***

                            ***************************************
                            *     ORCA property calculations      *
                            ***************************************

                                    ---------------------
                                    Active property flags
                                    ---------------------
   (+) Dipole Moment


------------------------------------------------------------------------------
                       ORCA ELECTRIC PROPERTIES CALCULATION
------------------------------------------------------------------------------

Dipole Moment Calculation                       ... on
Quadrupole Moment Calculation                   ... off
Polarizability Calculation                      ... off
GBWName                                         ... opt_EPRII.gbw
Electron density                                ... opt_EPRII.scfp
The origin for moment calculation is the CENTER OF MASS  = (-0.018448, -0.017552  0.000574)

-------------
DIPOLE MOMENT
-------------
                                X             Y             Z
Electronic contribution:     -1.09628       6.71999       0.02552
Nuclear contribution   :     -0.55880      -8.14049      -0.05673
                        -----------------------------------------
Total Dipole Moment    :     -1.65508      -1.42050      -0.03121
                        -----------------------------------------
Magnitude (a.u.)       :      2.18130
Magnitude (Debye)      :      5.54443



--------------------
Rotational spectrum 
--------------------
 
Rotational constants in cm-1:     0.059772     0.042129     0.025060 
Rotational constants in MHz :  1791.908875  1262.988532   751.274234 

 Dipole components along the rotational axes: 
x,y,z [a.u.] :    -1.574788     1.509339    -0.004847 
x,y,z [Debye]:    -4.002794     3.836434    -0.012320 

 

Timings for individual modules:

Sum of individual times         ...      804.577 sec (=  13.410 min)
GTO integral calculation        ...       45.260 sec (=   0.754 min)   5.6 %
SCF iterations                  ...      637.979 sec (=  10.633 min)  79.3 %
SCF Gradient evaluation         ...      119.040 sec (=   1.984 min)  14.8 %
Geometry relaxation             ...        2.298 sec (=   0.038 min)   0.3 %
                             ****ORCA TERMINATED NORMALLY****
TOTAL RUN TIME: 0 days 0 hours 14 minutes 26 seconds 691 msec
