
                                 *****************
                                 * O   R   C   A *
                                 *****************

                                            #,                                       
                                            ###                                      
                                            ####                                     
                                            #####                                    
                                            ######                                   
                                           ########,                                 
                                     ,,################,,,,,                         
                               ,,#################################,,                 
                          ,,##########################################,,             
                       ,#########################################, ''#####,          
                    ,#############################################,,   '####,        
                  ,##################################################,,,,####,       
                ,###########''''           ''''###############################       
              ,#####''   ,,,,##########,,,,          '''####'''          '####       
            ,##' ,,,,###########################,,,                        '##       
           ' ,,###''''                  '''############,,,                           
         ,,##''                                '''############,,,,        ,,,,,,###''
      ,#''                                            '''#######################'''  
     '                                                          ''''####''''         
             ,#######,   #######,   ,#######,      ##                                
            ,#'     '#,  ##    ##  ,#'     '#,    #''#        ######   ,####,        
            ##       ##  ##   ,#'  ##            #'  '#       #        #'  '#        
            ##       ##  #######   ##           ,######,      #####,   #    #        
            '#,     ,#'  ##    ##  '#,     ,#' ,#      #,         ##   #,  ,#        
             '#######'   ##     ##  '#######'  #'      '#     #####' # '####'        



                  #######################################################
                  #                        -***-                        #
                  #          Department of theory and spectroscopy      #
                  #    Directorship and core code : Frank Neese         #
                  #        Max Planck Institute fuer Kohlenforschung    #
                  #                Kaiser Wilhelm Platz 1               #
                  #                 D-45470 Muelheim/Ruhr               #
                  #                      Germany                        #
                  #                                                     #
                  #                  All rights reserved                #
                  #                        -***-                        #
                  #######################################################


                         Program Version 5.0.4 -  RELEASE  -


 With contributions from (in alphabetic order):
   Daniel Aravena         : Magnetic Suceptibility
   Michael Atanasov       : Ab Initio Ligand Field Theory (pilot matlab implementation)
   Alexander A. Auer      : GIAO ZORA, VPT2 properties, NMR spectrum
   Ute Becker             : Parallelization
   Giovanni Bistoni       : ED, misc. LED, open-shell LED, HFLD
   Martin Brehm           : Molecular dynamics
   Dmytro Bykov           : SCF Hessian
   Vijay G. Chilkuri      : MRCI spin determinant printing, contributions to CSF-ICE
   Dipayan Datta          : RHF DLPNO-CCSD density
   Achintya Kumar Dutta   : EOM-CC, STEOM-CC
   Dmitry Ganyushin       : Spin-Orbit,Spin-Spin,Magnetic field MRCI
   Miquel Garcia          : C-PCM and meta-GGA Hessian, CC/C-PCM, Gaussian charge scheme
   Yang Guo               : DLPNO-NEVPT2, F12-NEVPT2, CIM, IAO-localization
   Andreas Hansen         : Spin unrestricted coupled pair/coupled cluster methods
   Benjamin Helmich-Paris : MC-RPA, TRAH-SCF, COSX integrals
   Lee Huntington         : MR-EOM, pCC
   Robert Izsak           : Overlap fitted RIJCOSX, COSX-SCS-MP3, EOM
   Marcus Kettner         : VPT2
   Christian Kollmar      : KDIIS, OOCD, Brueckner-CCSD(T), CCSD density, CASPT2, CASPT2-K
   Simone Kossmann        : Meta GGA functionals, TD-DFT gradient, OOMP2, MP2 Hessian
   Martin Krupicka        : Initial AUTO-CI
   Lucas Lang             : DCDCAS
   Marvin Lechner         : AUTO-CI (C++ implementation), FIC-MRCC
   Dagmar Lenk            : GEPOL surface, SMD
   Dimitrios Liakos       : Extrapolation schemes; Compound Job, initial MDCI parallelization
   Dimitrios Manganas     : Further ROCIS development; embedding schemes
   Dimitrios Pantazis     : SARC Basis sets
   Anastasios Papadopoulos: AUTO-CI, single reference methods and gradients
   Taras Petrenko         : DFT Hessian,TD-DFT gradient, ASA, ECA, R-Raman, ABS, FL, XAS/XES, NRVS
   Peter Pinski           : DLPNO-MP2, DLPNO-MP2 Gradient
   Christoph Reimann      : Effective Core Potentials
   Marius Retegan         : Local ZFS, SOC
   Christoph Riplinger    : Optimizer, TS searches, QM/MM, DLPNO-CCSD(T), (RO)-DLPNO pert. Triples
   Tobias Risthaus        : Range-separated hybrids, TD-DFT gradient, RPA, STAB
   Michael Roemelt        : Original ROCIS implementation
   Masaaki Saitow         : Open-shell DLPNO-CCSD energy and density
   Barbara Sandhoefer     : DKH picture change effects
   Avijit Sen             : IP-ROCIS
   Kantharuban Sivalingam : CASSCF convergence, NEVPT2, FIC-MRCI
   Bernardo de Souza      : ESD, SOC TD-DFT
   Georgi Stoychev        : AutoAux, RI-MP2 NMR, DLPNO-MP2 response
   Willem Van den Heuvel  : Paramagnetic NMR
   Boris Wezisla          : Elementary symmetry handling
   Frank Wennmohs         : Technical directorship


 We gratefully acknowledge several colleagues who have allowed us to
 interface, adapt or use parts of their codes:
   Stefan Grimme, W. Hujo, H. Kruse, P. Pracht,  : VdW corrections, initial TS optimization,
                  C. Bannwarth, S. Ehlert          DFT functionals, gCP, sTDA/sTD-DF
   Ed Valeev, F. Pavosevic, A. Kumar             : LibInt (2-el integral package), F12 methods
   Garnet Chan, S. Sharma, J. Yang, R. Olivares  : DMRG
   Ulf Ekstrom                                   : XCFun DFT Library
   Mihaly Kallay                                 : mrcc  (arbitrary order and MRCC methods)
   Jiri Pittner, Ondrej Demel                    : Mk-CCSD
   Frank Weinhold                                : gennbo (NPA and NBO analysis)
   Christopher J. Cramer and Donald G. Truhlar   : smd solvation model
   Lars Goerigk                                  : TD-DFT with DH, B97 family of functionals
   V. Asgeirsson, H. Jonsson                     : NEB implementation
   FAccTs GmbH                                   : IRC, NEB, NEB-TS, DLPNO-Multilevel, CI-OPT
                                                   MM, QMMM, 2- and 3-layer-ONIOM, Crystal-QMMM,
                                                   LR-CPCM, SF, NACMEs, symmetry and pop. for TD-DFT,
                                                   nearIR, NL-DFT gradient (VV10), updates on ESD,
                                                   ML-optimized integration grids
   S Lehtola, MJT Oliveira, MAL Marques          : LibXC Library
   Liviu Ungur et al                             : ANISO software


 Your calculation uses the libint2 library for the computation of 2-el integrals
 For citations please refer to: http://libint.valeyev.net

 Your ORCA version has been built with support for libXC version: 5.1.0
 For citations please refer to: https://tddft.org/programs/libxc/

 This ORCA versions uses:
   CBLAS   interface :  Fast vector & matrix operations
   LAPACKE interface :  Fast linear algebra routines
   SCALAPACK package :  Parallel linear algebra routines
   Shared memory     :  Shared parallel matrices
   BLAS/LAPACK       :  OpenBLAS 0.3.15  USE64BITINT DYNAMIC_ARCH NO_AFFINITY SkylakeX SINGLE_THREADED
        Core in use  :  SkylakeX
   Copyright (c) 2011-2014, The OpenBLAS Project




***************************************
The coordinates will be read from file: opt_EPRII.xyz
***************************************


XCFun DFT library Copyright 2009-2010 Ulf Ekstrom and contributors.
See http://admol.org/xcfun for more information.
This is free software; see the source code for copying conditions.
There is ABSOLUTELY NO WARRANTY; not even for MERCHANTABILITY or FITNESS FOR A PARTICULAR PURPOSE.
For details see the documentation.
Scientific users of this library should cite U. Ekstrom, L. Visscher, R. Bast, A. J. Thorvaldsen and K. Ruud;
J.Chem.Theor.Comp. 2010, DOI: 10.1021/ct100117s
XCFun Version 0.99 

================================================================================

----- Orbital basis set information -----
Your calculation utilizes the basis: def2-TZVP
   F. Weigend and R. Ahlrichs, Phys. Chem. Chem. Phys. 7, 3297 (2005).

----- AuxJ basis set information -----
Your calculation utilizes the auxiliary basis: def2/J
   F. Weigend, Phys. Chem. Chem. Phys. 8, 1057 (2006).

================================================================================
                                        WARNINGS
                       Please study these warnings very carefully!
================================================================================


WARNING: your system is open-shell and RHF/RKS was chosen
  ===> : WILL SWITCH to UHF/UKS


WARNING: Geometry Optimization
  ===> : Switching off AutoStart
         For restart on a previous wavefunction, please use MOREAD

WARNING: Minnesota functionals are quite sensitive to the integration grid.
         see SE Wheeler, KN Houk, JCTC 2010, 6, 395,
             N Mardirossian, M Head-Gordon, JCTC 2016, 12, 4303.
         DEFGRID3 seems to be a minimum grid for reliable results with these functionals!
  ===> : Please increase the integration grid!


INFO   : the flag for use of the SHARK integral package has been found!

================================================================================
                                       INPUT FILE
================================================================================
NAME = freq.inp
|  1> ! M062X def2-TZVP OPT FREQ
|  2> %pal nprocs 16 end
|  3> *XYZFile 0 2 opt_EPRII.xyz
|  4> 
|  5>                          ****END OF INPUT****
================================================================================

                       *****************************
                       * Geometry Optimization Run *
                       *****************************

Geometry optimization settings:
Update method            Update   .... BFGS
Choice of coordinates    CoordSys .... Z-matrix Internals
Initial Hessian          InHess   .... Almoef's Model

Convergence Tolerances:
Energy Change            TolE     ....  5.0000e-06 Eh
Max. Gradient            TolMAXG  ....  3.0000e-04 Eh/bohr
RMS Gradient             TolRMSG  ....  1.0000e-04 Eh/bohr
Max. Displacement        TolMAXD  ....  4.0000e-03 bohr
RMS Displacement         TolRMSD  ....  2.0000e-03 bohr
Strict Convergence                ....  False
------------------------------------------------------------------------------
                        ORCA OPTIMIZATION COORDINATE SETUP
------------------------------------------------------------------------------

The optimization will be done in new redundant internal coordinates
Making redundant internal coordinates   ...  (new redundants) done
Evaluating the initial hessian          ...  (Almloef) done
Evaluating the coordinates              ...  done
Calculating the B-matrix                .... done
Calculating the G-matrix                .... done
Diagonalizing the G-matrix              .... done
The first mode is                       ....   39
The number of degrees of freedom        ....   54

    -----------------------------------------------------------------
                    Redundant Internal Coordinates


    -----------------------------------------------------------------
         Definition                    Initial Value    Approx d2E/dq
    -----------------------------------------------------------------
      1. B(C   1,N   0)                  1.4662         0.422975   
      2. B(C   2,N   0)                  1.3592         0.626692   
      3. B(C   3,C   2)                  1.4404         0.519223   
      4. B(O   4,C   3)                  1.2482         0.941990   
      5. B(C   5,C   3)                  1.5033         0.412050   
      6. B(C   6,C   5)                  1.3722         0.666941   
      7. B(C   7,C   5)                  1.4575         0.487499   
      8. B(C   8,C   7)                  1.5126         0.398226   
      9. B(C   9,C   7)                  1.3731         0.664728   
     10. B(C   9,N   0)                  1.3850         0.570058   
     11. B(H  10,C   1)                  1.0955         0.352889   
     12. B(H  11,C   1)                  1.0920         0.357401   
     13. B(H  12,C   1)                  1.0911         0.358594   
     14. B(H  13,C   2)                  1.0837         0.368468   
     15. B(H  14,C   6)                  1.0839         0.368236   
     16. B(H  15,C   6)                  1.0841         0.368028   
     17. B(H  16,C   8)                  1.0960         0.352236   
     18. B(H  17,C   8)                  1.0934         0.355592   
     19. B(H  18,C   8)                  1.0960         0.352286   
     20. B(H  19,C   9)                  1.0839         0.368243   
     21. A(C   1,N   0,C   2)          119.8476         0.401026   
     22. A(C   2,N   0,C   9)          121.0014         0.422830   
     23. A(C   1,N   0,C   9)          119.0147         0.394408   
     24. A(H  11,C   1,H  12)          108.7526         0.290305   
     25. A(N   0,C   1,H  10)          110.7725         0.327939   
     26. A(H  10,C   1,H  11)          109.1349         0.289576   
     27. A(N   0,C   1,H  11)          109.6279         0.328628   
     28. A(N   0,C   1,H  12)          109.4009         0.328808   
     29. A(H  10,C   1,H  12)          109.1191         0.289727   
     30. A(C   3,C   2,H  13)          119.6465         0.343845   
     31. A(N   0,C   2,H  13)          117.6644         0.352742   
     32. A(N   0,C   2,C   3)          122.6889         0.418559   
     33. A(C   2,C   3,O   4)          120.8991         0.450404   
     34. A(O   4,C   3,C   5)          122.9485         0.431979   
     35. A(C   2,C   3,C   5)          116.1524         0.391207   
     36. A(C   3,C   5,C   7)          117.8083         0.386925   
     37. A(C   3,C   5,C   6)          118.4570         0.408826   
     38. A(C   6,C   5,C   7)          123.7345         0.421233   
     39. A(C   5,C   6,H  15)          119.0324         0.358630   
     40. A(C   5,C   6,H  14)          122.3101         0.358665   
     41. A(H  14,C   6,H  15)          118.6575         0.292865   
     42. A(C   8,C   7,C   9)          119.3958         0.406127   
     43. A(C   5,C   7,C   9)          120.0778         0.420983   
     44. A(C   5,C   7,C   8)          120.5257         0.384633   
     45. A(H  16,C   8,H  18)          107.2312         0.288838   
     46. A(C   7,C   8,H  18)          110.9701         0.326564   
     47. A(H  16,C   8,H  17)          108.1265         0.289261   
     48. A(C   7,C   8,H  17)          111.2497         0.327067   
     49. A(C   7,C   8,H  16)          110.9866         0.326557   
     50. A(H  17,C   8,H  18)          108.1206         0.289268   
     51. A(N   0,C   9,C   7)          122.2693         0.430119   
     52. A(C   7,C   9,H  19)          122.4667         0.358463   
     53. A(N   0,C   9,H  19)          115.2635         0.347112   
     54. D(H  10,C   1,N   0,C   2)     90.9727         0.015254   
     55. D(H  11,C   1,N   0,C   2)   -148.5307         0.015254   
     56. D(H  11,C   1,N   0,C   9)     35.6707         0.015254   
     57. D(H  12,C   1,N   0,C   2)    -29.3570         0.015254   
     58. D(H  10,C   1,N   0,C   9)    -84.8258         0.015254   
     59. D(H  12,C   1,N   0,C   9)    154.8444         0.015254   
     60. D(C   3,C   2,N   0,C   1)   -176.2185         0.031856   
     61. D(H  13,C   2,N   0,C   1)      3.9432         0.031856   
     62. D(H  13,C   2,N   0,C   9)    179.6566         0.031856   
     63. D(C   3,C   2,N   0,C   9)     -0.5051         0.031856   
     64. D(C   5,C   3,C   2,H  13)   -179.8632         0.018384   
     65. D(O   4,C   3,C   2,H  13)      0.1929         0.018384   
     66. D(O   4,C   3,C   2,N   0)   -179.6424         0.018384   
     67. D(C   5,C   3,C   2,N   0)      0.3015         0.018384   
     68. D(C   6,C   5,C   3,C   2)   -179.9191         0.011639   
     69. D(C   7,C   5,C   3,O   4)    179.8714         0.011639   
     70. D(C   7,C   5,C   3,C   2)     -0.0713         0.011639   
     71. D(C   6,C   5,C   3,O   4)      0.0235         0.011639   
     72. D(H  15,C   6,C   5,C   7)   -179.9190         0.031087   
     73. D(H  15,C   6,C   5,C   3)     -0.0808         0.031087   
     74. D(H  14,C   6,C   5,C   7)      0.0595         0.031087   
     75. D(H  14,C   6,C   5,C   3)    179.8977         0.031087   
     76. D(C   9,C   7,C   5,C   6)    179.8855         0.016182   
     77. D(C   9,C   7,C   5,C   3)      0.0464         0.016182   
     78. D(C   8,C   7,C   5,C   6)      0.1912         0.016182   
     79. D(C   8,C   7,C   5,C   3)   -179.6480         0.016182   
     80. D(H  17,C   8,C   7,C   9)      0.3840         0.011774   
     81. D(H  17,C   8,C   7,C   5)   -179.9196         0.011774   
     82. D(H  16,C   8,C   7,C   9)   -120.0601         0.011774   
     83. D(H  18,C   8,C   7,C   5)    -59.4940         0.011774   
     84. D(H  16,C   8,C   7,C   5)     59.6363         0.011774   
     85. D(H  18,C   8,C   7,C   9)    120.8095         0.011774   
     86. D(H  19,C   9,C   7,C   8)     -0.2697         0.030866   
     87. D(N   0,C   9,C   7,C   8)    179.4571         0.030866   
     88. D(N   0,C   9,C   7,C   5)     -0.2407         0.030866   
     89. D(H  19,C   9,N   0,C   2)   -179.7823         0.026008   
     90. D(H  19,C   9,N   0,C   1)     -4.0338         0.026008   
     91. D(H  19,C   9,C   7,C   5)   -179.9675         0.030866   
     92. D(C   7,C   9,N   0,C   2)      0.4725         0.026008   
     93. D(C   7,C   9,N   0,C   1)    176.2210         0.026008   
    -----------------------------------------------------------------

Number of atoms                         .... 20
Number of degrees of freedom            .... 93

         *************************************************************
         *                GEOMETRY OPTIMIZATION CYCLE   1            *
         *************************************************************
---------------------------------
CARTESIAN COORDINATES (ANGSTROEM)
---------------------------------
  N     -1.666148   -0.007054    0.020474
  C     -3.131635   -0.042429   -0.008106
  C     -1.017430    1.186692   -0.018156
  C      0.418154    1.290494   -0.073212
  O      0.979656    2.404966   -0.100933
  C      1.176070   -0.007630   -0.093164
  C      2.546673    0.036155   -0.143651
  C      0.406633   -1.244918   -0.054089
  C      1.106797   -2.585685   -0.063466
  C     -0.964813   -1.201096   -0.001970
  H     -3.498549   -0.113699   -1.037877
  H     -3.488914   -0.904155    0.559652
  H     -3.525126    0.866671    0.449376
  H     -1.619869    2.087449   -0.003665
  H      3.154815   -0.860957   -0.158894
  H      3.041671    1.000287   -0.168936
  H      1.776432   -2.684867    0.798503
  H      0.387505   -3.408613   -0.031911
  H      1.718802   -2.702279   -0.965137
  H     -1.574825   -2.096531    0.028862

----------------------------
CARTESIAN COORDINATES (A.U.)
----------------------------
  NO LB      ZA    FRAG     MASS         X           Y           Z
   0 N     7.0000    0    14.007   -3.148563   -0.013331    0.038690
   1 C     6.0000    0    12.011   -5.917932   -0.080179   -0.015317
   2 C     6.0000    0    12.011   -1.922663    2.242523   -0.034310
   3 C     6.0000    0    12.011    0.790196    2.438679   -0.138352
   4 O     8.0000    0    15.999    1.851281    4.544726   -0.190736
   5 C     6.0000    0    12.011    2.222450   -0.014419   -0.176054
   6 C     6.0000    0    12.011    4.812515    0.068324   -0.271461
   7 C     6.0000    0    12.011    0.768425   -2.352553   -0.102213
   8 C     6.0000    0    12.011    2.091544   -4.886237   -0.119934
   9 C     6.0000    0    12.011   -1.823233   -2.269743   -0.003723
  10 H     1.0000    0     1.008   -6.611300   -0.214861   -1.961303
  11 H     1.0000    0     1.008   -6.593091   -1.708605    1.057589
  12 H     1.0000    0     1.008   -6.661523    1.637771    0.849198
  13 H     1.0000    0     1.008   -3.061108    3.944707   -0.006925
  14 H     1.0000    0     1.008    5.961736   -1.626973   -0.300266
  15 H     1.0000    0     1.008    5.747924    1.890269   -0.319243
  16 H     1.0000    0     1.008    3.356970   -5.073663    1.508952
  17 H     1.0000    0     1.008    0.732278   -6.441346   -0.060303
  18 H     1.0000    0     1.008    3.248066   -5.106567   -1.823845
  19 H     1.0000    0     1.008   -2.975987   -3.961870    0.054541

--------------------------------
INTERNAL COORDINATES (ANGSTROEM)
--------------------------------
 N      0   0   0     0.000000000000     0.00000000     0.00000000
 C      1   0   0     1.466192862945     0.00000000     0.00000000
 C      1   2   0     1.359175210054   119.84758738     0.00000000
 C      3   1   2     1.440384061271   122.68891995   183.78150806
 O      4   3   1     1.248239000356   120.89905216   180.35759847
 C      4   3   1     1.503316327961   116.15243740     0.30151306
 C      6   4   3     1.372231442311   118.45703396   180.08086204
 C      6   4   3     1.457545805270   117.80827817   359.92874647
 C      8   6   4     1.512605301750   120.52566840   180.35198827
 C      8   6   4     1.373136006854   120.07783857     0.04635355
 H      2   1   3     1.095506564335   110.77247445    90.97273635
 H      2   1   3     1.092047846184   109.62793272   211.46928514
 H      2   1   3     1.091140456630   109.40090762   330.64295770
 H      3   1   2     1.083746643293   117.66440967     3.94317019
 H      7   6   4     1.083918442474   122.31007960   179.89773255
 H      7   6   4     1.084071797209   119.03238977   359.91923296
 H      9   8   6     1.096010476498   110.98657805    59.63629965
 H      9   8   6     1.093429493797   111.24966222   180.08040506
 H      9   8   6     1.095972105909   110.97007614   300.50596933
 H     10   8   6     1.083913294411   122.46668540   180.03251409

---------------------------
INTERNAL COORDINATES (A.U.)
---------------------------
 N      0   0   0     0.000000000000     0.00000000     0.00000000
 C      1   0   0     2.770702970477     0.00000000     0.00000000
 C      1   2   0     2.568468915016   119.84758738     0.00000000
 C      3   1   2     2.721931403467   122.68891995   183.78150806
 O      4   3   1     2.358829860352   120.89905216   180.35759847
 C      4   3   1     2.840856152498   116.15243740     0.30151306
 C      6   4   3     2.593141618323   118.45703396   180.08086204
 C      6   4   3     2.754362399606   117.80827817   359.92874647
 C      8   6   4     2.858409769025   120.52566840   180.35198827
 C      8   6   4     2.594850997581   120.07783857     0.04635355
 H      2   1   3     2.070207384506   110.77247445    90.97273635
 H      2   1   3     2.063671354426   109.62793272   211.46928514
 H      2   1   3     2.061956636673   109.40090762   330.64295770
 H      3   1   2     2.047984354381   117.66440967     3.94317019
 H      7   6   4     2.048309007782   122.31007960   179.89773255
 H      7   6   4     2.048598806233   119.03238977   359.91923296
 H      9   8   6     2.071159640490   110.98657805    59.63629965
 H      9   8   6     2.066282290028   111.24966222   180.08040506
 H      9   8   6     2.071087130584   110.97007614   300.50596933
 H     10   8   6     2.048299279353   122.46668540   180.03251409

---------------------
BASIS SET INFORMATION
---------------------
There are 4 groups of distinct atoms

 Group   1 Type N   : 11s6p2d1f contracted to 5s3p2d1f pattern {62111/411/11/1}
 Group   2 Type C   : 11s6p2d1f contracted to 5s3p2d1f pattern {62111/411/11/1}
 Group   3 Type O   : 11s6p2d1f contracted to 5s3p2d1f pattern {62111/411/11/1}
 Group   4 Type H   : 5s1p contracted to 3s1p pattern {311/1}

Atom   0N    basis set group =>   1
Atom   1C    basis set group =>   2
Atom   2C    basis set group =>   2
Atom   3C    basis set group =>   2
Atom   4O    basis set group =>   3
Atom   5C    basis set group =>   2
Atom   6C    basis set group =>   2
Atom   7C    basis set group =>   2
Atom   8C    basis set group =>   2
Atom   9C    basis set group =>   2
Atom  10H    basis set group =>   4
Atom  11H    basis set group =>   4
Atom  12H    basis set group =>   4
Atom  13H    basis set group =>   4
Atom  14H    basis set group =>   4
Atom  15H    basis set group =>   4
Atom  16H    basis set group =>   4
Atom  17H    basis set group =>   4
Atom  18H    basis set group =>   4
Atom  19H    basis set group =>   4
---------------------------------
AUXILIARY/J BASIS SET INFORMATION
---------------------------------
There are 4 groups of distinct atoms

 Group   1 Type N   : 12s5p4d2f1g contracted to 6s4p3d1f1g pattern {711111/2111/211/2/1}
 Group   2 Type C   : 12s5p4d2f1g contracted to 6s4p3d1f1g pattern {711111/2111/211/2/1}
 Group   3 Type O   : 12s5p4d2f1g contracted to 6s4p3d1f1g pattern {711111/2111/211/2/1}
 Group   4 Type H   : 5s2p1d contracted to 3s1p1d pattern {311/2/1}

Atom   0N    basis set group =>   1
Atom   1C    basis set group =>   2
Atom   2C    basis set group =>   2
Atom   3C    basis set group =>   2
Atom   4O    basis set group =>   3
Atom   5C    basis set group =>   2
Atom   6C    basis set group =>   2
Atom   7C    basis set group =>   2
Atom   8C    basis set group =>   2
Atom   9C    basis set group =>   2
Atom  10H    basis set group =>   4
Atom  11H    basis set group =>   4
Atom  12H    basis set group =>   4
Atom  13H    basis set group =>   4
Atom  14H    basis set group =>   4
Atom  15H    basis set group =>   4
Atom  16H    basis set group =>   4
Atom  17H    basis set group =>   4
Atom  18H    basis set group =>   4
Atom  19H    basis set group =>   4


           ************************************************************
           *        Program running with 16 parallel MPI-processes    *
           *              working on a common directory               *
           ************************************************************
------------------------------------------------------------------------------
                           ORCA GTO INTEGRAL CALCULATION
                           -- RI-GTO INTEGRALS CHOSEN --
------------------------------------------------------------------------------
------------------------------------------------------------------------------
                   ___                                                        
                  /   \      - P O W E R E D   B Y -                         
                 /     \                                                     
                 |  |  |   _    _      __       _____    __    __             
                 |  |  |  | |  | |    /  \     |  _  \  |  |  /  |          
                  \  \/   | |  | |   /    \    | | | |  |  | /  /          
                 / \  \   | |__| |  /  /\  \   | |_| |  |  |/  /          
                |  |  |   |  __  | /  /__\  \  |    /   |      \           
                |  |  |   | |  | | |   __   |  |    \   |  |\   \          
                \     /   | |  | | |  |  |  |  | |\  \  |  | \   \       
                 \___/    |_|  |_| |__|  |__|  |_| \__\ |__|  \__/        
                                                                              
                      - O R C A' S   B I G   F R I E N D -                    
                                      &                                       
                       - I N T E G R A L  F E E D E R -                       
                                                                              
 v1 FN, 2020, v2 2021                                                         
------------------------------------------------------------------------------


Reading SHARK input file freq.SHARKINP.tmp ... ok
----------------------
SHARK INTEGRAL PACKAGE
----------------------

Number of atoms                             ...     20
Number of basis functions                   ...    370
Number of shells                            ...    150
Maximum angular momentum                    ...      3
Integral batch strategy                     ... SHARK/LIBINT Hybrid
RI-J (if used) integral strategy            ... SPLIT-RIJ (Revised 2003 algorithm where possible)
Printlevel                                  ...      1
Contraction scheme used                     ... SEGMENTED contraction
Coulomb Range Separation                    ... NOT USED
Exchange Range Separation                   ... NOT USED
Finite Nucleus Model                        ... NOT USED
Auxiliary Coulomb fitting basis             ... AVAILABLE
   # of basis functions in Aux-J            ...    600
   # of shells in Aux-J                     ...    200
   Maximum angular momentum in Aux-J        ...      4
Auxiliary J/K fitting basis                 ... NOT available
Auxiliary Correlation fitting basis         ... NOT available
Auxiliary 'external' fitting basis          ... NOT available
Integral threshold                          ...     2.500000e-11
Primitive cut-off                           ...     2.500000e-12
Primitive pair pre-selection threshold      ...     2.500000e-12

Calculating pre-screening integrals         ... done (  0.0 sec) Dimension = 150
Organizing shell pair data                  ... done (  0.1 sec)
Shell pair information
Total number of shell pairs                 ...     11325
Shell pairs after pre-screening             ...      9982
Total number of primitive shell pairs       ...     34180
Primitive shell pairs kept                  ...     22098
          la=0 lb=0:   2721 shell pairs
          la=1 lb=0:   2834 shell pairs
          la=1 lb=1:    750 shell pairs
          la=2 lb=0:   1433 shell pairs
          la=2 lb=1:    741 shell pairs
          la=2 lb=2:    198 shell pairs
          la=3 lb=0:    692 shell pairs
          la=3 lb=1:    371 shell pairs
          la=3 lb=2:    190 shell pairs
          la=3 lb=3:     52 shell pairs

Calculating one electron integrals          ... done (  0.0 sec)
Calculating RI/J V-Matrix + Cholesky decomp.... done (  0.1 sec)
Calculating Nuclear repulsion               ... done (  0.0 sec) ENN=    505.829036583772 Eh

SHARK setup successfully completed in   0.6 seconds

Maximum memory used throughout the entire GTOINT-calculation: 23.1 MB


           ************************************************************
           *        Program running with 16 parallel MPI-processes    *
           *              working on a common directory               *
           ************************************************************
-------------------------------------------------------------------------------
                                 ORCA SCF
-------------------------------------------------------------------------------

------------
SCF SETTINGS
------------
Hamiltonian:
 Density Functional     Method          .... DFT(GTOs)
 Exchange Functional    Exchange        .... M062X
 Correlation Functional Correlation     .... M062X
 Gradients option       PostSCFGGA      .... off
 Hybrid DFT is turned on
   Fraction HF Exchange ScalHFX         ....  0.540000
   Scaling of DF-GGA-X  ScalDFX         ....  0.460000
   Scaling of DF-GGA-C  ScalDFC         ....  1.000000
   Scaling of DF-LDA-C  ScalLDAC        ....  1.000000
   Perturbative correction              ....  0.000000
   Density functional embedding theory  .... OFF
 RI-approximation to the Coulomb term is turned on
   Number of AuxJ basis functions       .... 600
   RIJ-COSX (HFX calculated with COS-X)).... on


General Settings:
 Integral files         IntName         .... freq
 Hartree-Fock type      HFTyp           .... UHF
 Total Charge           Charge          ....    0
 Multiplicity           Mult            ....    2
 Number of Electrons    NEL             ....   73
 Basis Dimension        Dim             ....  370
 Nuclear Repulsion      ENuc            ....    505.8290365838 Eh

Convergence Acceleration:
 DIIS                   CNVDIIS         .... on
   Start iteration      DIISMaxIt       ....    12
   Startup error        DIISStart       ....  0.200000
   # of expansion vecs  DIISMaxEq       ....     5
   Bias factor          DIISBfac        ....   1.050
   Max. coefficient     DIISMaxC        ....  10.000
 Trust-Rad. Augm. Hess. CNVTRAH         .... auto
   Auto Start mean grad. ratio tolernc. ....  1.125000
   Auto Start start iteration           ....    20
   Auto Start num. interpolation iter.  ....    10
   Max. Number of Micro iterations      ....    16
   Max. Number of Macro iterations      .... Maxiter - #DIIS iter
   Number of Davidson start vectors     ....     2
   Converg. threshold I  (grad. norm)   ....   1.000e-05
   Converg. threshold II (energy diff.) ....   1.000e-08
   Grad. Scal. Fac. for Micro threshold ....   0.100
   Minimum threshold for Micro iter.    ....   0.010
   NR start threshold (gradient norm)   ....   0.001
   Initial trust radius                 ....   0.400
   Minimum AH scaling param. (alpha)    ....   1.000
   Maximum AH scaling param. (alpha)    .... 1000.000
   Orbital update algorithm             .... Taylor
   White noise on init. David. guess    .... on
   Maximum white noise                  ....   0.010
   Quad. conv. algorithm                .... NR
 SOSCF                  CNVSOSCF        .... off
 Level Shifting         CNVShift        .... on
   Level shift para.    LevelShift      ....    0.2500
   Turn off err/grad.   ShiftErr        ....    0.0010
 Zerner damping         CNVZerner       .... off
 Static damping         CNVDamp         .... on
   Fraction old density DampFac         ....    0.7000
   Max. Damping (<1)    DampMax         ....    0.9800
   Min. Damping (>=0)   DampMin         ....    0.0000
   Turn off err/grad.   DampErr         ....    0.1000
 Fernandez-Rico         CNVRico         .... off

SCF Procedure:
 Maximum # iterations   MaxIter         ....   125
 SCF integral mode      SCFMode         .... Direct
   Integral package                     .... SHARK and LIBINT hybrid scheme
 Reset frequency        DirectResetFreq ....    20
 Integral Threshold     Thresh          ....  2.500e-11 Eh
 Primitive CutOff       TCut            ....  2.500e-12 Eh

Convergence Tolerance:
 Convergence Check Mode ConvCheckMode   .... Total+1el-Energy
 Convergence forced     ConvForced      .... 0
 Energy Change          TolE            ....  1.000e-08 Eh
 1-El. energy change                    ....  1.000e-05 Eh
 DIIS Error             TolErr          ....  5.000e-07


Diagonalization of the overlap matrix:
Smallest eigenvalue                        ... 4.301e-05
Time for diagonalization                   ...    0.036 sec
Threshold for overlap eigenvalues          ... 1.000e-08
Number of eigenvalues below threshold      ... 0
Time for construction of square roots      ...    0.036 sec
Total time needed                          ...    0.074 sec

Time for model grid setup =    0.144 sec

------------------------------
INITIAL GUESS: MODEL POTENTIAL
------------------------------
Loading Hartree-Fock densities                     ... done
Calculating cut-offs                               ... done
Initializing the effective Hamiltonian             ... done
Setting up the integral package (SHARK)            ... done
Starting the Coulomb interaction                   ... done (   0.2 sec)
Reading the grid                                   ... done
Mapping shells                                     ... done
Starting the XC term evaluation                    ... done (   0.1 sec)
  promolecular density results
     # of electrons  =     72.993808189
     EX              =    -58.514753004
     EC              =     -2.417095233
     EX+EC           =    -60.931848237
Transforming the Hamiltonian                       ... done (   0.0 sec)
Diagonalizing the Hamiltonian                      ... done (   0.0 sec)
Back transforming the eigenvectors                 ... done (   0.0 sec)
Now organizing SCF variables                       ... done
                      ------------------
                      INITIAL GUESS DONE (   0.6 sec)
                      ------------------
-------------------
DFT GRID GENERATION
-------------------

General Integration Accuracy     IntAcc      ... 4.388
Radial Grid Type                 RadialGrid  ... OptM3 with GC (2021)
Angular Grid (max. ang.)         AngularGrid ... 4 (Lebedev-302)
Angular grid pruning method      GridPruning ... 4 (adaptive)
Weight generation scheme         WeightScheme... Becke
Basis function cutoff            BFCut       ... 1.0000e-11
Integration weight cutoff        WCut        ... 1.0000e-14
Angular grids for H and He will be reduced by one unit
Partially contracted basis set               ... off
Rotationally invariant grid construction     ... off

Total number of grid points                  ...    92194
Total number of batches                      ...     1450
Average number of points per batch           ...       63
Average number of grid points per atom       ...     4610
Time for grid setup =    0.485 sec

--------------------
COSX GRID GENERATION
--------------------

GRIDX 1
-------
General Integration Accuracy     IntAcc      ... 3.816
Radial Grid Type                 RadialGrid  ... OptM3 with GC (2021)
Angular Grid (max. ang.)         AngularGrid ... 1 (Lebedev-50)
Angular grid pruning method      GridPruning ... 4 (adaptive)
Weight generation scheme         WeightScheme... Becke
Basis function cutoff            BFCut       ... 1.0000e-11
Integration weight cutoff        WCut        ... 1.0000e-14
Angular grids for H and He will be reduced by one unit
Partially contracted basis set               ... on
Rotationally invariant grid construction     ... off

Total number of grid points                  ...    11804
Total number of batches                      ...      193
Average number of points per batch           ...       61
Average number of grid points per atom       ...      590
UseSFitting                                  ... on

GRIDX 2
-------
General Integration Accuracy     IntAcc      ... 4.020
Radial Grid Type                 RadialGrid  ... OptM3 with GC (2021)
Angular Grid (max. ang.)         AngularGrid ... 2 (Lebedev-110)
Angular grid pruning method      GridPruning ... 4 (adaptive)
Weight generation scheme         WeightScheme... Becke
Basis function cutoff            BFCut       ... 1.0000e-11
Integration weight cutoff        WCut        ... 1.0000e-14
Angular grids for H and He will be reduced by one unit
Partially contracted basis set               ... on
Rotationally invariant grid construction     ... off

Total number of grid points                  ...    25425
Total number of batches                      ...      404
Average number of points per batch           ...       62
Average number of grid points per atom       ...     1271
UseSFitting                                  ... on

GRIDX 3
-------
General Integration Accuracy     IntAcc      ... 4.338
Radial Grid Type                 RadialGrid  ... OptM3 with GC (2021)
Angular Grid (max. ang.)         AngularGrid ... 3 (Lebedev-194)
Angular grid pruning method      GridPruning ... 4 (adaptive)
Weight generation scheme         WeightScheme... Becke
Basis function cutoff            BFCut       ... 1.0000e-11
Integration weight cutoff        WCut        ... 1.0000e-14
Angular grids for H and He will be reduced by one unit
Partially contracted basis set               ... on
Rotationally invariant grid construction     ... off

Total number of grid points                  ...    55801
Total number of batches                      ...      883
Average number of points per batch           ...       63
Average number of grid points per atom       ...     2790
UseSFitting                                  ... on

Time for X-Grid setup             =    1.038 sec

--------------
SCF ITERATIONS
--------------
ITER       Energy         Delta-E        Max-DP      RMS-DP      [F,P]     Damp
               ***  Starting incremental Fock matrix formation  ***
  0   -440.4693758300   0.000000000000 0.09810044  0.00084643  0.1593347 0.7000
  1   -440.5946504468  -0.125274616739 0.08684449  0.00070911  0.0757556 0.7000
                               ***Turning on DIIS***
  2   -440.6525564001  -0.057905953328 0.10227807  0.00105193  0.0277716 0.0000
  3   -440.7464919323  -0.093935532214 0.09252387  0.00070055  0.0391177 0.0000
  4   -440.7630877177  -0.016595785437 0.01669163  0.00016176  0.0116733 0.0000
  5   -440.7643001290  -0.001212411217 0.01335911  0.00009722  0.0047372 0.0000
  6   -440.7646651772  -0.000365048212 0.00723061  0.00005432  0.0019818 0.0000
  7   -440.7648650807  -0.000199903502 0.00610039  0.00004020  0.0014239 0.0000
  8   -440.7649951514  -0.000130070771 0.00523641  0.00004017  0.0008271 0.0000
               *** Restarting incremental Fock matrix formation ***
                                   *** Resetting DIIS ***
  9   -440.7650807253  -0.000085573877 0.00244747  0.00001948  0.0007514 0.0000
 10   -440.7650916366  -0.000010911299 0.00103510  0.00000747  0.0009264 0.0000
 11   -440.7650979781  -0.000006341522 0.00092444  0.00000822  0.0004084 0.0000
 12   -440.7651043614  -0.000006383285 0.00063265  0.00000686  0.0002037 0.0000
 13   -440.7651075370  -0.000003175570 0.00042365  0.00000407  0.0001531 0.0000
 14   -440.7651084263  -0.000000889291 0.00009787  0.00000114  0.0000760 0.0000
 15   -440.7651085946  -0.000000168285 0.00013811  0.00000133  0.0000565 0.0000
 16   -440.7651087026  -0.000000108052 0.00003330  0.00000046  0.0000273 0.0000
 17   -440.7651087241  -0.000000021462 0.00008030  0.00000064  0.0000172 0.0000
 18   -440.7651087292  -0.000000005092 0.00002032  0.00000016  0.0000138 0.0000
                 **** Energy Check signals convergence ****

               *****************************************************
               *                     SUCCESS                       *
               *           SCF CONVERGED AFTER  19 CYCLES          *
               *****************************************************

Old exchange energy                            =    -32.288560414 Eh
New exchange energy                            =    -32.288552166 Eh
Exchange energy change after final integration =      0.000008248 Eh
Total energy after final integration           =   -440.765100482 Eh
Final COS-X integration done in                =     3.623 sec

----------------
TOTAL SCF ENERGY
----------------

Total Energy       :         -440.76510048 Eh          -11993.82814 eV

Components:
Nuclear Repulsion  :          505.82903658 Eh           13764.30785 eV
Electronic Energy  :         -946.59413707 Eh          -25758.13599 eV
One Electron Energy:        -1598.67219616 Eh          -43502.08206 eV
Two Electron Energy:          652.07805910 Eh           17743.94607 eV
Max COSX asymmetry :            0.00000155 Eh               0.00004 eV

Virial components:
Potential Energy   :         -879.01219521 Eh          -23919.13786 eV
Kinetic Energy     :          438.24709473 Eh           11925.30972 eV
Virial Ratio       :            2.00574563


DFT components:
N(Alpha)           :       37.000038041391 electrons
N(Beta)            :       36.000043053481 electrons
N(Total)           :       73.000081094871 electrons
E(XC)              :      -30.138878052092 Eh       
DFET-embed. en.    :        0.000000000000 Eh       

---------------
SCF CONVERGENCE
---------------

  Last Energy change         ...   -8.6175e-11  Tolerance :   1.0000e-08
  Last MAX-Density change    ...    0.0000e+00  Tolerance :   1.0000e-07
  Last RMS-Density change    ...    0.0000e+00  Tolerance :   5.0000e-09
  Last DIIS Error            ...    6.2111e-06  Tolerance :   5.0000e-07

             **** THE GBW FILE WAS UPDATED (freq.gbw) ****
             **** DENSITY freq.scfp WAS UPDATED ****
             **** ENERGY FILE WAS UPDATED (freq.en.tmp) ****
----------------------
UHF SPIN CONTAMINATION
----------------------

Warning: in a DFT calculation there is little theoretical justification to 
         calculate <S**2> as in Hartree-Fock theory. We will do it anyways
         but you should keep in mind that the values have only limited relevance

Expectation value of <S**2>     :     0.784445
Ideal value S*(S+1) for S=0.5   :     0.750000
Deviation                       :     0.034445

             **** THE GBW FILE WAS UPDATED (freq.gbw) ****
             **** DENSITY freq.scfp WAS UPDATED ****
----------------
ORBITAL ENERGIES
----------------
                 SPIN UP ORBITALS
  NO   OCC          E(Eh)            E(eV) 
   0   1.0000     -19.578839      -532.7673 
   1   1.0000     -14.837749      -403.7557 
   2   1.0000     -10.604746      -288.5698 
   3   1.0000     -10.603839      -288.5451 
   4   1.0000     -10.590132      -288.1721 
   5   1.0000     -10.588475      -288.1271 
   6   1.0000     -10.566204      -287.5210 
   7   1.0000     -10.550603      -287.0965 
   8   1.0000     -10.543760      -286.9103 
   9   1.0000     -10.534379      -286.6550 
  10   1.0000      -1.127725       -30.6870 
  11   1.0000      -1.110118       -30.2078 
  12   1.0000      -0.933969       -25.4146 
  13   1.0000      -0.868301       -23.6277 
  14   1.0000      -0.850050       -23.1310 
  15   1.0000      -0.814469       -22.1628 
  16   1.0000      -0.760007       -20.6808 
  17   1.0000      -0.687643       -18.7117 
  18   1.0000      -0.677282       -18.4298 
  19   1.0000      -0.602774       -16.4023 
  20   1.0000      -0.600356       -16.3365 
  21   1.0000      -0.570094       -15.5130 
  22   1.0000      -0.543367       -14.7858 
  23   1.0000      -0.510433       -13.8896 
  24   1.0000      -0.505462       -13.7543 
  25   1.0000      -0.500727       -13.6255 
  26   1.0000      -0.493465       -13.4279 
  27   1.0000      -0.476498       -12.9662 
  28   1.0000      -0.472815       -12.8660 
  29   1.0000      -0.468705       -12.7541 
  30   1.0000      -0.436956       -11.8902 
  31   1.0000      -0.430013       -11.7013 
  32   1.0000      -0.418988       -11.4012 
  33   1.0000      -0.362214        -9.8564 
  34   1.0000      -0.312154        -8.4941 
  35   1.0000      -0.293973        -7.9994 
  36   1.0000      -0.218790        -5.9536 
  37   0.0000       0.005522         0.1503 
  38   0.0000       0.034905         0.9498 
  39   0.0000       0.054420         1.4808 
  40   0.0000       0.075953         2.0668 
  41   0.0000       0.091479         2.4893 
  42   0.0000       0.100457         2.7336 
  43   0.0000       0.111081         3.0227 
  44   0.0000       0.130775         3.5586 
  45   0.0000       0.141045         3.8380 
  46   0.0000       0.143151         3.8953 
  47   0.0000       0.147550         4.0150 
  48   0.0000       0.154764         4.2113 
  49   0.0000       0.156625         4.2620 
  50   0.0000       0.172711         4.6997 
  51   0.0000       0.177591         4.8325 
  52   0.0000       0.189843         5.1659 
  53   0.0000       0.206551         5.6205 
  54   0.0000       0.214593         5.8394 
  55   0.0000       0.221824         6.0362 
  56   0.0000       0.231923         6.3110 
  57   0.0000       0.246480         6.7071 
  58   0.0000       0.251993         6.8571 
  59   0.0000       0.265400         7.2219 
  60   0.0000       0.270194         7.3524 
  61   0.0000       0.281162         7.6508 
  62   0.0000       0.296368         8.0646 
  63   0.0000       0.308660         8.3991 
  64   0.0000       0.320391         8.7183 
  65   0.0000       0.323714         8.8087 
  66   0.0000       0.333513         9.0754 
  67   0.0000       0.336813         9.1652 
  68   0.0000       0.344738         9.3808 
  69   0.0000       0.348825         9.4920 
  70   0.0000       0.374922        10.2022 
  71   0.0000       0.379723        10.3328 
  72   0.0000       0.386127        10.5070 
  73   0.0000       0.399555        10.8724 
  74   0.0000       0.403097        10.9688 
  75   0.0000       0.413710        11.2576 
  76   0.0000       0.423501        11.5240 
  77   0.0000       0.436182        11.8691 
  78   0.0000       0.445807        12.1310 
  79   0.0000       0.461099        12.5471 
  80   0.0000       0.462448        12.5838 
  81   0.0000       0.474131        12.9018 
  82   0.0000       0.475705        12.9446 
  83   0.0000       0.488506        13.2929 
  84   0.0000       0.493667        13.4334 
  85   0.0000       0.504691        13.7333 
  86   0.0000       0.505907        13.7664 
  87   0.0000       0.518533        14.1100 
  88   0.0000       0.525056        14.2875 
  89   0.0000       0.539646        14.6845 
  90   0.0000       0.550918        14.9912 
  91   0.0000       0.560484        15.2515 
  92   0.0000       0.577761        15.7217 
  93   0.0000       0.590125        16.0581 
  94   0.0000       0.598916        16.2973 
  95   0.0000       0.605339        16.4721 
  96   0.0000       0.615283        16.7427 
  97   0.0000       0.623608        16.9692 
  98   0.0000       0.639293        17.3961 
  99   0.0000       0.656074        17.8527 
 100   0.0000       0.666273        18.1302 
 101   0.0000       0.676584        18.4108 
 102   0.0000       0.678929        18.4746 
 103   0.0000       0.711722        19.3669 
 104   0.0000       0.723254        19.6807 
 105   0.0000       0.724268        19.7083 
 106   0.0000       0.729555        19.8522 
 107   0.0000       0.737949        20.0806 
 108   0.0000       0.750966        20.4348 
 109   0.0000       0.784862        21.3572 
 110   0.0000       0.793375        21.5888 
 111   0.0000       0.810429        22.0529 
 112   0.0000       0.815322        22.1861 
 113   0.0000       0.836992        22.7757 
 114   0.0000       0.843891        22.9635 
 115   0.0000       0.862240        23.4627 
 116   0.0000       0.871137        23.7048 
 117   0.0000       0.892028        24.2733 
 118   0.0000       0.916726        24.9454 
 119   0.0000       0.931951        25.3597 
 120   0.0000       0.950204        25.8564 
 121   0.0000       0.962154        26.1816 
 122   0.0000       0.970732        26.4150 
 123   0.0000       0.978826        26.6352 
 124   0.0000       1.014238        27.5988 
 125   0.0000       1.017465        27.6866 
 126   0.0000       1.050203        28.5775 
 127   0.0000       1.063383        28.9361 
 128   0.0000       1.092401        29.7257 
 129   0.0000       1.095459        29.8089 
 130   0.0000       1.108968        30.1766 
 131   0.0000       1.124888        30.6098 
 132   0.0000       1.146431        31.1960 
 133   0.0000       1.160523        31.5794 
 134   0.0000       1.181264        32.1438 
 135   0.0000       1.201783        32.7022 
 136   0.0000       1.214081        33.0368 
 137   0.0000       1.233665        33.5697 
 138   0.0000       1.240076        33.7442 
 139   0.0000       1.283369        34.9222 
 140   0.0000       1.303822        35.4788 
 141   0.0000       1.327183        36.1145 
 142   0.0000       1.353410        36.8282 
 143   0.0000       1.362030        37.0627 
 144   0.0000       1.388951        37.7953 
 145   0.0000       1.399071        38.0707 
 146   0.0000       1.405334        38.2411 
 147   0.0000       1.430112        38.9153 
 148   0.0000       1.446793        39.3692 
 149   0.0000       1.464462        39.8500 
 150   0.0000       1.476345        40.1734 
 151   0.0000       1.498611        40.7793 
 152   0.0000       1.514908        41.2227 
 153   0.0000       1.519088        41.3365 
 154   0.0000       1.552611        42.2487 
 155   0.0000       1.562556        42.5193 
 156   0.0000       1.572854        42.7995 
 157   0.0000       1.574009        42.8310 
 158   0.0000       1.584326        43.1117 
 159   0.0000       1.601616        43.5822 
 160   0.0000       1.614238        43.9256 
 161   0.0000       1.630133        44.3582 
 162   0.0000       1.636571        44.5334 
 163   0.0000       1.645798        44.7844 
 164   0.0000       1.657214        45.0951 
 165   0.0000       1.672813        45.5195 
 166   0.0000       1.688925        45.9580 
 167   0.0000       1.698886        46.2290 
 168   0.0000       1.722572        46.8736 
 169   0.0000       1.724370        46.9225 
 170   0.0000       1.734226        47.1907 
 171   0.0000       1.746505        47.5248 
 172   0.0000       1.755849        47.7791 
 173   0.0000       1.797338        48.9081 
 174   0.0000       1.827672        49.7335 
 175   0.0000       1.830761        49.8175 
 176   0.0000       1.853017        50.4232 
 177   0.0000       1.871066        50.9143 
 178   0.0000       1.900174        51.7064 
 179   0.0000       1.903583        51.7991 
 180   0.0000       1.919768        52.2395 
 181   0.0000       1.936760        52.7019 
 182   0.0000       1.991796        54.1995 
 183   0.0000       1.996332        54.3230 
 184   0.0000       2.007666        54.6314 
 185   0.0000       2.014704        54.8229 
 186   0.0000       2.034307        55.3563 
 187   0.0000       2.051720        55.8301 
 188   0.0000       2.068610        56.2897 
 189   0.0000       2.080433        56.6115 
 190   0.0000       2.110138        57.4198 
 191   0.0000       2.113723        57.5173 
 192   0.0000       2.143390        58.3246 
 193   0.0000       2.163665        58.8763 
 194   0.0000       2.172205        59.1087 
 195   0.0000       2.188767        59.5594 
 196   0.0000       2.223259        60.4980 
 197   0.0000       2.240907        60.9782 
 198   0.0000       2.261408        61.5360 
 199   0.0000       2.275797        61.9276 
 200   0.0000       2.293745        62.4160 
 201   0.0000       2.308174        62.8086 
 202   0.0000       2.319793        63.1248 
 203   0.0000       2.337221        63.5990 
 204   0.0000       2.352359        64.0109 
 205   0.0000       2.372752        64.5659 
 206   0.0000       2.377967        64.7078 
 207   0.0000       2.408220        65.5310 
 208   0.0000       2.432169        66.1827 
 209   0.0000       2.441426        66.4346 
 210   0.0000       2.471650        67.2570 
 211   0.0000       2.486676        67.6659 
 212   0.0000       2.495717        67.9119 
 213   0.0000       2.499564        68.0166 
 214   0.0000       2.507292        68.2269 
 215   0.0000       2.530709        68.8641 
 216   0.0000       2.539743        69.1099 
 217   0.0000       2.560344        69.6705 
 218   0.0000       2.569518        69.9201 
 219   0.0000       2.574169        70.0467 
 220   0.0000       2.595877        70.6374 
 221   0.0000       2.615564        71.1731 
 222   0.0000       2.649133        72.0866 
 223   0.0000       2.658082        72.3301 
 224   0.0000       2.661673        72.4278 
 225   0.0000       2.685147        73.0666 
 226   0.0000       2.705329        73.6158 
 227   0.0000       2.727356        74.2151 
 228   0.0000       2.738452        74.5171 
 229   0.0000       2.779365        75.6304 
 230   0.0000       2.785885        75.8078 
 231   0.0000       2.807735        76.4023 
 232   0.0000       2.818568        76.6971 
 233   0.0000       2.850699        77.5715 
 234   0.0000       2.857719        77.7625 
 235   0.0000       2.878837        78.3371 
 236   0.0000       2.902312        78.9759 
 237   0.0000       2.926853        79.6437 
 238   0.0000       2.940572        80.0170 
 239   0.0000       2.948594        80.2353 
 240   0.0000       2.961784        80.5942 
 241   0.0000       2.969598        80.8069 
 242   0.0000       2.973964        80.9257 
 243   0.0000       2.984579        81.2145 
 244   0.0000       3.010258        81.9133 
 245   0.0000       3.018686        82.1426 
 246   0.0000       3.025235        82.3208 
 247   0.0000       3.036762        82.6345 
 248   0.0000       3.052468        83.0619 
 249   0.0000       3.063784        83.3698 
 250   0.0000       3.074630        83.6649 
 251   0.0000       3.095560        84.2345 
 252   0.0000       3.104960        84.4902 
 253   0.0000       3.107356        84.5554 
 254   0.0000       3.126747        85.0831 
 255   0.0000       3.136262        85.3420 
 256   0.0000       3.158469        85.9463 
 257   0.0000       3.177744        86.4708 
 258   0.0000       3.188950        86.7757 
 259   0.0000       3.197876        87.0186 
 260   0.0000       3.212565        87.4183 
 261   0.0000       3.218839        87.5891 
 262   0.0000       3.223920        87.7273 
 263   0.0000       3.245263        88.3081 
 264   0.0000       3.257266        88.6347 
 265   0.0000       3.268215        88.9326 
 266   0.0000       3.279421        89.2376 
 267   0.0000       3.307532        90.0025 
 268   0.0000       3.310134        90.0733 
 269   0.0000       3.320801        90.3636 
 270   0.0000       3.325795        90.4995 
 271   0.0000       3.336819        90.7995 
 272   0.0000       3.342170        90.9451 
 273   0.0000       3.364970        91.5655 
 274   0.0000       3.373220        91.7900 
 275   0.0000       3.389009        92.2196 
 276   0.0000       3.398958        92.4904 
 277   0.0000       3.408954        92.7623 
 278   0.0000       3.431375        93.3725 
 279   0.0000       3.442636        93.6789 
 280   0.0000       3.458387        94.1075 
 281   0.0000       3.467491        94.3552 
 282   0.0000       3.479583        94.6843 
 283   0.0000       3.499370        95.2227 
 284   0.0000       3.511412        95.5504 
 285   0.0000       3.555908        96.7612 
 286   0.0000       3.569113        97.1205 
 287   0.0000       3.606199        98.1297 
 288   0.0000       3.626870        98.6921 
 289   0.0000       3.658850        99.5624 
 290   0.0000       3.664936        99.7280 
 291   0.0000       3.678002       100.0835 
 292   0.0000       3.714587       101.0790 
 293   0.0000       3.724429       101.3469 
 294   0.0000       3.734192       101.6125 
 295   0.0000       3.790745       103.1514 
 296   0.0000       3.818731       103.9130 
 297   0.0000       3.849822       104.7590 
 298   0.0000       3.860285       105.0437 
 299   0.0000       3.882082       105.6368 
 300   0.0000       3.929906       106.9382 
 301   0.0000       3.942984       107.2940 
 302   0.0000       3.956741       107.6684 
 303   0.0000       4.000272       108.8529 
 304   0.0000       4.010991       109.1446 
 305   0.0000       4.048428       110.1633 
 306   0.0000       4.053097       110.2904 
 307   0.0000       4.095475       111.4435 
 308   0.0000       4.101937       111.6194 
 309   0.0000       4.131029       112.4110 
 310   0.0000       4.143192       112.7420 
 311   0.0000       4.186639       113.9242 
 312   0.0000       4.223098       114.9163 
 313   0.0000       4.230101       115.1069 
 314   0.0000       4.265978       116.0832 
 315   0.0000       4.289354       116.7192 
 316   0.0000       4.321957       117.6064 
 317   0.0000       4.336166       117.9931 
 318   0.0000       4.399137       119.7066 
 319   0.0000       4.420910       120.2991 
 320   0.0000       4.441618       120.8626 
 321   0.0000       4.455326       121.2356 
 322   0.0000       4.468603       121.5969 
 323   0.0000       4.542838       123.6169 
 324   0.0000       4.557918       124.0273 
 325   0.0000       4.566313       124.2557 
 326   0.0000       4.610054       125.4459 
 327   0.0000       4.674610       127.2026 
 328   0.0000       4.748614       129.2164 
 329   0.0000       4.808749       130.8527 
 330   0.0000       4.848926       131.9460 
 331   0.0000       4.889073       133.0384 
 332   0.0000       4.961390       135.0063 
 333   0.0000       4.966544       135.1465 
 334   0.0000       4.988193       135.7356 
 335   0.0000       5.007508       136.2612 
 336   0.0000       5.062864       137.7675 
 337   0.0000       5.121985       139.3763 
 338   0.0000       5.141454       139.9061 
 339   0.0000       5.183593       141.0527 
 340   0.0000       5.217960       141.9879 
 341   0.0000       5.270357       143.4137 
 342   0.0000       5.278765       143.6425 
 343   0.0000       5.357943       145.7970 
 344   0.0000       5.401262       146.9758 
 345   0.0000       5.457449       148.5047 
 346   0.0000       5.603981       152.4921 
 347   0.0000       5.669788       154.2828 
 348   0.0000       5.720172       155.6538 
 349   0.0000       5.749319       156.4469 
 350   0.0000       5.846349       159.0872 
 351   0.0000       5.944584       161.7604 
 352   0.0000       6.066959       165.0903 
 353   0.0000       6.371796       173.3854 
 354   0.0000       6.408911       174.3953 
 355   0.0000       6.622351       180.2033 
 356   0.0000       6.639628       180.6735 
 357   0.0000       6.827393       185.7828 
 358   0.0000       7.081729       192.7036 
 359   0.0000       7.099862       193.1971 
 360   0.0000      22.417362       610.0074 
 361   0.0000      22.505353       612.4018 
 362   0.0000      22.531206       613.1053 
 363   0.0000      22.664428       616.7304 
 364   0.0000      22.813574       620.7889 
 365   0.0000      22.950036       624.5022 
 366   0.0000      23.109800       628.8496 
 367   0.0000      23.506612       639.6474 
 368   0.0000      32.920105       895.8016 
 369   0.0000      44.126641      1200.7469 

                 SPIN DOWN ORBITALS
  NO   OCC          E(Eh)            E(eV) 
   0   1.0000     -19.574495      -532.6491 
   1   1.0000     -14.835112      -403.6839 
   2   1.0000     -10.604887      -288.5736 
   3   1.0000     -10.604100      -288.5522 
   4   1.0000     -10.591088      -288.1981 
   5   1.0000     -10.586128      -288.0632 
   6   1.0000     -10.565053      -287.4897 
   7   1.0000     -10.551608      -287.1239 
   8   1.0000     -10.543880      -286.9136 
   9   1.0000     -10.532472      -286.6031 
  10   1.0000      -1.117856       -30.4184 
  11   1.0000      -1.099936       -29.9308 
  12   1.0000      -0.931436       -25.3457 
  13   1.0000      -0.861283       -23.4367 
  14   1.0000      -0.847358       -23.0578 
  15   1.0000      -0.810872       -22.0650 
  16   1.0000      -0.753675       -20.5085 
  17   1.0000      -0.683115       -18.5885 
  18   1.0000      -0.672149       -18.2901 
  19   1.0000      -0.598910       -16.2972 
  20   1.0000      -0.597207       -16.2508 
  21   1.0000      -0.558960       -15.2101 
  22   1.0000      -0.539072       -14.6689 
  23   1.0000      -0.508282       -13.8311 
  24   1.0000      -0.502761       -13.6808 
  25   1.0000      -0.496218       -13.5028 
  26   1.0000      -0.487844       -13.2749 
  27   1.0000      -0.473574       -12.8866 
  28   1.0000      -0.464971       -12.6525 
  29   1.0000      -0.457760       -12.4563 
  30   1.0000      -0.434440       -11.8217 
  31   1.0000      -0.415709       -11.3120 
  32   1.0000      -0.405781       -11.0419 
  33   1.0000      -0.347997        -9.4695 
  34   1.0000      -0.304521        -8.2864 
  35   1.0000      -0.265758        -7.2316 
  36   0.0000      -0.070438        -1.9167 
  37   0.0000       0.028918         0.7869 
  38   0.0000       0.052303         1.4232 
  39   0.0000       0.052890         1.4392 
  40   0.0000       0.073746         2.0067 
  41   0.0000       0.090573         2.4646 
  42   0.0000       0.100683         2.7397 
  43   0.0000       0.109958         2.9921 
  44   0.0000       0.130841         3.5604 
  45   0.0000       0.139713         3.8018 
  46   0.0000       0.142018         3.8645 
  47   0.0000       0.145813         3.9678 
  48   0.0000       0.152265         4.1433 
  49   0.0000       0.156465         4.2576 
  50   0.0000       0.173338         4.7168 
  51   0.0000       0.174964         4.7610 
  52   0.0000       0.189447         5.1551 
  53   0.0000       0.208572         5.6755 
  54   0.0000       0.213144         5.7999 
  55   0.0000       0.220741         6.0067 
  56   0.0000       0.230297         6.2667 
  57   0.0000       0.240995         6.5578 
  58   0.0000       0.248113         6.7515 
  59   0.0000       0.261686         7.1208 
  60   0.0000       0.266951         7.2641 
  61   0.0000       0.281543         7.6612 
  62   0.0000       0.296931         8.0799 
  63   0.0000       0.307116         8.3570 
  64   0.0000       0.319480         8.6935 
  65   0.0000       0.322370         8.7721 
  66   0.0000       0.331254         9.0139 
  67   0.0000       0.334002         9.0887 
  68   0.0000       0.342819         9.3286 
  69   0.0000       0.345894         9.4123 
  70   0.0000       0.372146        10.1266 
  71   0.0000       0.375768        10.2252 
  72   0.0000       0.386102        10.5064 
  73   0.0000       0.399070        10.8592 
  74   0.0000       0.401522        10.9260 
  75   0.0000       0.410904        11.1813 
  76   0.0000       0.420696        11.4477 
  77   0.0000       0.435483        11.8501 
  78   0.0000       0.444682        12.1004 
  79   0.0000       0.459695        12.5089 
  80   0.0000       0.462201        12.5771 
  81   0.0000       0.470377        12.7996 
  82   0.0000       0.475692        12.9442 
  83   0.0000       0.490401        13.3445 
  84   0.0000       0.492304        13.3963 
  85   0.0000       0.503176        13.6921 
  86   0.0000       0.507599        13.8125 
  87   0.0000       0.521216        14.1830 
  88   0.0000       0.526529        14.3276 
  89   0.0000       0.539259        14.6740 
  90   0.0000       0.547814        14.9068 
  91   0.0000       0.561548        15.2805 
  92   0.0000       0.578375        15.7384 
  93   0.0000       0.592047        16.1104 
  94   0.0000       0.596840        16.2408 
  95   0.0000       0.603803        16.4303 
  96   0.0000       0.617562        16.8047 
  97   0.0000       0.625037        17.0081 
  98   0.0000       0.638650        17.3785 
  99   0.0000       0.652777        17.7630 
 100   0.0000       0.658654        17.9229 
 101   0.0000       0.676621        18.4118 
 102   0.0000       0.681397        18.5418 
 103   0.0000       0.708057        19.2672 
 104   0.0000       0.720231        19.5985 
 105   0.0000       0.722257        19.6536 
 106   0.0000       0.730595        19.8805 
 107   0.0000       0.742395        20.2016 
 108   0.0000       0.751164        20.4402 
 109   0.0000       0.780023        21.2255 
 110   0.0000       0.796282        21.6679 
 111   0.0000       0.807994        21.9866 
 112   0.0000       0.811163        22.0729 
 113   0.0000       0.839493        22.8438 
 114   0.0000       0.844665        22.9845 
 115   0.0000       0.862899        23.4807 
 116   0.0000       0.872419        23.7397 
 117   0.0000       0.891691        24.2642 
 118   0.0000       0.915994        24.9255 
 119   0.0000       0.932771        25.3820 
 120   0.0000       0.949669        25.8418 
 121   0.0000       0.962893        26.2016 
 122   0.0000       0.971626        26.4393 
 123   0.0000       0.978578        26.6285 
 124   0.0000       1.014510        27.6062 
 125   0.0000       1.016786        27.6682 
 126   0.0000       1.050496        28.5855 
 127   0.0000       1.063177        28.9305 
 128   0.0000       1.092791        29.7364 
 129   0.0000       1.098348        29.8876 
 130   0.0000       1.111004        30.2320 
 131   0.0000       1.126795        30.6617 
 132   0.0000       1.147354        31.2211 
 133   0.0000       1.163359        31.6566 
 134   0.0000       1.184440        32.2303 
 135   0.0000       1.202556        32.7232 
 136   0.0000       1.215671        33.0801 
 137   0.0000       1.236701        33.6523 
 138   0.0000       1.242280        33.8042 
 139   0.0000       1.284204        34.9450 
 140   0.0000       1.305472        35.5237 
 141   0.0000       1.327663        36.1275 
 142   0.0000       1.356429        36.9103 
 143   0.0000       1.364889        37.1405 
 144   0.0000       1.391861        37.8745 
 145   0.0000       1.401782        38.1444 
 146   0.0000       1.407415        38.2977 
 147   0.0000       1.440044        39.1856 
 148   0.0000       1.448135        39.4057 
 149   0.0000       1.469131        39.9771 
 150   0.0000       1.480101        40.2756 
 151   0.0000       1.504701        40.9450 
 152   0.0000       1.516457        41.2649 
 153   0.0000       1.531499        41.6742 
 154   0.0000       1.552736        42.2521 
 155   0.0000       1.563702        42.5505 
 156   0.0000       1.574392        42.8414 
 157   0.0000       1.578582        42.9554 
 158   0.0000       1.588276        43.2192 
 159   0.0000       1.606652        43.7192 
 160   0.0000       1.618419        44.0394 
 161   0.0000       1.633265        44.4434 
 162   0.0000       1.647454        44.8295 
 163   0.0000       1.649297        44.8797 
 164   0.0000       1.665500        45.3206 
 165   0.0000       1.676699        45.6253 
 166   0.0000       1.691588        46.0304 
 167   0.0000       1.702056        46.3153 
 168   0.0000       1.723091        46.8877 
 169   0.0000       1.727713        47.0135 
 170   0.0000       1.737894        47.2905 
 171   0.0000       1.747639        47.5557 
 172   0.0000       1.756848        47.8063 
 173   0.0000       1.799447        48.9654 
 174   0.0000       1.830532        49.8113 
 175   0.0000       1.834846        49.9287 
 176   0.0000       1.861798        50.6621 
 177   0.0000       1.880087        51.1598 
 178   0.0000       1.904778        51.8316 
 179   0.0000       1.907860        51.9155 
 180   0.0000       1.922885        52.3244 
 181   0.0000       1.939937        52.7884 
 182   0.0000       1.993014        54.2327 
 183   0.0000       1.997618        54.3579 
 184   0.0000       2.009877        54.6915 
 185   0.0000       2.017651        54.9031 
 186   0.0000       2.037048        55.4309 
 187   0.0000       2.054048        55.8935 
 188   0.0000       2.072139        56.3858 
 189   0.0000       2.082048        56.6554 
 190   0.0000       2.113964        57.5239 
 191   0.0000       2.115174        57.5568 
 192   0.0000       2.144527        58.3555 
 193   0.0000       2.166153        58.9440 
 194   0.0000       2.176162        59.2164 
 195   0.0000       2.193524        59.6888 
 196   0.0000       2.225018        60.5458 
 197   0.0000       2.247150        61.1481 
 198   0.0000       2.267400        61.6991 
 199   0.0000       2.281081        62.0714 
 200   0.0000       2.296390        62.4879 
 201   0.0000       2.310839        62.8811 
 202   0.0000       2.322064        63.1866 
 203   0.0000       2.338852        63.6434 
 204   0.0000       2.356090        64.1125 
 205   0.0000       2.374124        64.6032 
 206   0.0000       2.380190        64.7683 
 207   0.0000       2.411956        65.6327 
 208   0.0000       2.436107        66.2898 
 209   0.0000       2.446636        66.5763 
 210   0.0000       2.472775        67.2876 
 211   0.0000       2.490879        67.7803 
 212   0.0000       2.498896        67.9984 
 213   0.0000       2.506044        68.1929 
 214   0.0000       2.510971        68.3270 
 215   0.0000       2.540881        69.1409 
 216   0.0000       2.544902        69.2503 
 217   0.0000       2.563618        69.7596 
 218   0.0000       2.575021        70.0699 
 219   0.0000       2.582741        70.2800 
 220   0.0000       2.599301        70.7306 
 221   0.0000       2.619082        71.2689 
 222   0.0000       2.651881        72.1614 
 223   0.0000       2.661193        72.4147 
 224   0.0000       2.667009        72.5730 
 225   0.0000       2.695047        73.3360 
 226   0.0000       2.718642        73.9780 
 227   0.0000       2.731998        74.3414 
 228   0.0000       2.743238        74.6473 
 229   0.0000       2.788619        75.8822 
 230   0.0000       2.793185        76.0064 
 231   0.0000       2.817027        76.6552 
 232   0.0000       2.824072        76.8469 
 233   0.0000       2.859974        77.8239 
 234   0.0000       2.863024        77.9068 
 235   0.0000       2.885060        78.5065 
 236   0.0000       2.910561        79.2004 
 237   0.0000       2.935174        79.8701 
 238   0.0000       2.945700        80.1566 
 239   0.0000       2.958040        80.4924 
 240   0.0000       2.969083        80.7928 
 241   0.0000       2.976831        81.0037 
 242   0.0000       2.980664        81.1080 
 243   0.0000       3.006030        81.7982 
 244   0.0000       3.017864        82.1203 
 245   0.0000       3.027827        82.3914 
 246   0.0000       3.033533        82.5466 
 247   0.0000       3.041522        82.7640 
 248   0.0000       3.056933        83.1834 
 249   0.0000       3.071726        83.5859 
 250   0.0000       3.080611        83.8277 
 251   0.0000       3.099012        84.3284 
 252   0.0000       3.111712        84.6740 
 253   0.0000       3.113424        84.7206 
 254   0.0000       3.133461        85.2658 
 255   0.0000       3.153024        85.7981 
 256   0.0000       3.169980        86.2595 
 257   0.0000       3.185883        86.6923 
 258   0.0000       3.195765        86.9612 
 259   0.0000       3.206638        87.2571 
 260   0.0000       3.221628        87.6650 
 261   0.0000       3.228806        87.8603 
 262   0.0000       3.234399        88.0125 
 263   0.0000       3.250198        88.4424 
 264   0.0000       3.266244        88.8790 
 265   0.0000       3.273003        89.0629 
 266   0.0000       3.286665        89.4347 
 267   0.0000       3.308952        90.0412 
 268   0.0000       3.321068        90.3709 
 269   0.0000       3.322244        90.4028 
 270   0.0000       3.339611        90.8754 
 271   0.0000       3.341906        90.9379 
 272   0.0000       3.353181        91.2447 
 273   0.0000       3.370651        91.7201 
 274   0.0000       3.376282        91.8733 
 275   0.0000       3.398820        92.4866 
 276   0.0000       3.405458        92.6672 
 277   0.0000       3.418345        93.0179 
 278   0.0000       3.438160        93.5571 
 279   0.0000       3.449062        93.8537 
 280   0.0000       3.465991        94.3144 
 281   0.0000       3.477338        94.6232 
 282   0.0000       3.487428        94.8977 
 283   0.0000       3.504336        95.3578 
 284   0.0000       3.517850        95.7256 
 285   0.0000       3.561960        96.9258 
 286   0.0000       3.577480        97.3482 
 287   0.0000       3.610748        98.2535 
 288   0.0000       3.632389        98.8423 
 289   0.0000       3.663438        99.6872 
 290   0.0000       3.669729        99.8584 
 291   0.0000       3.684391       100.2574 
 292   0.0000       3.719784       101.2205 
 293   0.0000       3.731367       101.5356 
 294   0.0000       3.742942       101.8506 
 295   0.0000       3.794586       103.2559 
 296   0.0000       3.825930       104.1088 
 297   0.0000       3.858798       105.0032 
 298   0.0000       3.875018       105.4446 
 299   0.0000       3.888232       105.8042 
 300   0.0000       3.941150       107.2441 
 301   0.0000       3.949619       107.4746 
 302   0.0000       3.964622       107.8829 
 303   0.0000       4.006104       109.0116 
 304   0.0000       4.015555       109.2688 
 305   0.0000       4.050351       110.2157 
 306   0.0000       4.056686       110.3880 
 307   0.0000       4.102838       111.6439 
 308   0.0000       4.124481       112.2328 
 309   0.0000       4.139682       112.6465 
 310   0.0000       4.151989       112.9814 
 311   0.0000       4.192728       114.0899 
 312   0.0000       4.228461       115.0623 
 313   0.0000       4.236162       115.2718 
 314   0.0000       4.269843       116.1883 
 315   0.0000       4.300114       117.0120 
 316   0.0000       4.324770       117.6830 
 317   0.0000       4.339324       118.0790 
 318   0.0000       4.406609       119.9099 
 319   0.0000       4.427776       120.4859 
 320   0.0000       4.448887       121.0604 
 321   0.0000       4.467660       121.5712 
 322   0.0000       4.478222       121.8586 
 323   0.0000       4.549737       123.8046 
 324   0.0000       4.563710       124.1849 
 325   0.0000       4.580583       124.6440 
 326   0.0000       4.616312       125.6162 
 327   0.0000       4.684813       127.4802 
 328   0.0000       4.760659       129.5441 
 329   0.0000       4.820386       131.1694 
 330   0.0000       4.859648       132.2377 
 331   0.0000       4.899615       133.3253 
 332   0.0000       4.973534       135.3367 
 333   0.0000       4.974920       135.3745 
 334   0.0000       4.991677       135.8304 
 335   0.0000       5.038539       137.1056 
 336   0.0000       5.073995       138.0704 
 337   0.0000       5.135423       139.7420 
 338   0.0000       5.144799       139.9971 
 339   0.0000       5.196268       141.3976 
 340   0.0000       5.224245       142.1589 
 341   0.0000       5.280567       143.6915 
 342   0.0000       5.287575       143.8822 
 343   0.0000       5.370225       146.1312 
 344   0.0000       5.410530       147.2280 
 345   0.0000       5.467799       148.7864 
 346   0.0000       5.613879       152.7614 
 347   0.0000       5.668906       154.2588 
 348   0.0000       5.724317       155.7666 
 349   0.0000       5.752734       156.5399 
 350   0.0000       5.847613       159.1216 
 351   0.0000       5.948665       161.8714 
 352   0.0000       6.080232       165.4515 
 353   0.0000       6.379513       173.5954 
 354   0.0000       6.442681       175.3143 
 355   0.0000       6.629552       180.3993 
 356   0.0000       6.665784       181.3852 
 357   0.0000       6.851750       186.4456 
 358   0.0000       7.091665       192.9740 
 359   0.0000       7.105818       193.3591 
 360   0.0000      22.419165       610.0565 
 361   0.0000      22.505649       612.4098 
 362   0.0000      22.531839       613.1225 
 363   0.0000      22.666835       616.7959 
 364   0.0000      22.818624       620.9263 
 365   0.0000      22.949057       624.4756 
 366   0.0000      23.111721       628.9019 
 367   0.0000      23.508092       639.6877 
 368   0.0000      32.919922       895.7966 
 369   0.0000      44.126087      1200.7319 

                    ********************************
                    * MULLIKEN POPULATION ANALYSIS *
                    ********************************

--------------------------------------------
MULLIKEN ATOMIC CHARGES AND SPIN POPULATIONS
--------------------------------------------
   0 N :   -0.036685    0.162571
   1 C :   -0.325266   -0.013206
   2 C :   -0.110586    0.352596
   3 C :    0.159563    0.024712
   4 O :   -0.406534    0.227778
   5 C :    0.050726   -0.141860
   6 C :   -0.351102    0.336431
   7 C :    0.010207    0.195413
   8 C :   -0.527424   -0.003023
   9 C :   -0.062498   -0.132198
  10 H :    0.173443    0.012958
  11 H :    0.155677    0.001870
  12 H :    0.159626    0.004481
  13 H :    0.169801   -0.015019
  14 H :    0.145096   -0.016146
  15 H :    0.167080   -0.013462
[...]
     31       0.043868  -0.035323  -0.002526   0.115952  -0.000079  -0.098230
     32      -0.069023  -0.003322  -0.016322   0.724070  -0.000465  -0.565336
     33       0.208494  -0.042061  -0.003281   0.145949   0.000166   0.219265
     34      -0.034460   0.001147  -0.007891   0.349375   0.000469   0.529645
     35       0.065307  -0.014075   0.006586  -0.288585  -0.000392  -0.403826
     36       0.014761   0.058127  -0.003037   0.144282   0.000167   0.127918
     37       0.039611   0.011741   0.007860  -0.362718  -0.000504  -0.322923
     38      -0.016292   0.027833   0.003293  -0.148678  -0.000138  -0.108035
     39      -0.295707   0.229617  -0.001007  -0.006663  -0.000004  -0.005705
     40      -0.158835   0.095363   0.001459   0.008517   0.000015   0.009011
     41       0.009235  -0.008366   0.000019   0.000175   0.000183   0.000602
     42      -0.032987  -0.261205   0.005563  -0.001680   0.000721   0.000179
     43      -0.087683  -0.277823  -0.008130   0.002641  -0.001044  -0.000238
     44       0.001509   0.010591  -0.000108   0.000079  -0.000008  -0.000006
     45      -0.016513  -0.139161  -0.000523  -0.001709   0.000233   0.000113
     46       0.081122   0.224932   0.001548  -0.003223   0.000519   0.000180
     47      -0.000087   0.004399   0.000023   0.000110   0.000121  -0.000016
     48       0.131778   0.093346  -0.381756  -0.008903   0.436849  -0.000333
     49      -0.067240  -0.031881   0.045356   0.001179  -0.055977  -0.000007
     50      -0.087125  -0.068510  -0.508022  -0.011716   0.543766  -0.000541
     51      -0.112854  -0.070037   0.300808   0.005693   0.008230  -0.000249
     52       0.090846   0.053204   0.336389   0.006539   0.009903  -0.000384
     53       0.002871   0.001706  -0.009824  -0.000223  -0.017100   0.000058
     54       0.138630   0.098211  -0.342133  -0.007932  -0.408191   0.000325
     55      -0.069112  -0.032848   0.046293   0.001214   0.058605   0.000057
     56       0.080073   0.063237   0.517631   0.011823   0.575676  -0.000569
     57      -0.386775  -0.148456  -0.002243  -0.006726  -0.000073  -0.009286
     58       0.463922   0.220624  -0.005204  -0.007153  -0.000124  -0.013226
     59       0.013503   0.004171   0.000075  -0.000089  -0.000141   0.001335
                 54         55         56         57         58         59    
      0      -0.000196  -0.000374  -0.000511   0.001287  -0.001553  -0.000030
      1      -0.000182  -0.000781  -0.000000  -0.000623  -0.001249  -0.000020
      2       0.000014  -0.000013   0.000059  -0.000109   0.000107   0.000004
      3       0.000103   0.008197   0.000311   0.000402  -0.001279   0.000025
      4      -0.000144  -0.093276   0.000390   0.003540   0.003259   0.000022
      5       0.000001  -0.006496   0.000144  -0.000873   0.001120  -0.000002
      6       0.000092  -0.002046   0.000933  -0.007226  -0.047883  -0.000284
      7       0.000064   0.003241  -0.000386   0.008247   0.071475   0.000547
      8      -0.000006   0.000304  -0.000044   0.000157   0.001246   0.000007
      9       0.000173   0.000089  -0.000444   0.000528   0.002730   0.000434
     10      -0.000106   0.000142   0.001422  -0.000019   0.000007   0.000342
     11      -0.000006   0.000040   0.000010  -0.000018  -0.000116  -0.000015
     12      -0.000057   0.000005  -0.000278   0.000044  -0.000119  -0.000293
     13       0.000035   0.000027  -0.000213   0.000065   0.000259  -0.000043
     14       0.000004  -0.000020   0.000009  -0.000002   0.000012   0.000017
     15       0.000243   0.000011  -0.005101  -0.001156   0.000056   0.000548
     16      -0.000171  -0.000005  -0.000303  -0.000652  -0.000008   0.000941
     17      -0.000005  -0.000006   0.000188   0.000062  -0.000011  -0.000023
     18      -0.000853   0.000268   0.065852   0.001101   0.000533  -0.003206
     19       0.000666   0.000022   0.000919  -0.000487  -0.000591   0.099476
     20       0.000028  -0.000020  -0.002273  -0.000041  -0.000012  -0.000322
     21       0.001726  -0.000277  -0.000962  -0.004197   0.000183  -0.000574
     22      -0.000419   0.000115  -0.001104   0.001177  -0.000103   0.000089
     23      -0.000064   0.000006   0.000037   0.000179  -0.000016   0.000021
     24       0.076688  -0.000074   0.000783   0.001158  -0.000021  -0.000523
     25       0.051591  -0.000084   0.000066   0.001049  -0.000167   0.000057
     26      -0.003297   0.000013  -0.000141  -0.000064   0.000001   0.000062
     27      -0.001272   0.001442   0.000553   0.050545  -0.006034   0.000305
     28      -0.001321   0.002237  -0.000646   0.069598  -0.011013   0.000269
     29       0.000034  -0.000302  -0.000034  -0.001763   0.000261  -0.000013
     30      -0.000306   0.037622  -0.001626  -0.001654   0.000843  -0.000110
     31      -0.000107  -0.000705  -0.000585   0.001228   0.000137  -0.000040
     32      -0.000731   0.110522  -0.003969  -0.001583  -0.003074  -0.000246
     33       0.000051   0.165860  -0.001283  -0.011645   0.000622  -0.000113
     34       0.000215   0.386837  -0.002841  -0.024106  -0.004650  -0.000321
     35      -0.000115  -0.320787   0.002402   0.019354   0.003203   0.000227
     36      -0.000810  -0.292624   0.000410   0.005549   0.016230   0.000019
     37       0.001891   0.725424  -0.001194  -0.018714  -0.035026  -0.000112
     38       0.000754   0.287929  -0.000417  -0.006970  -0.013746  -0.000035
     39      -0.000900   0.024285  -0.003556   0.075495   0.552116   0.003967
     40       0.000972  -0.034296   0.006586  -0.111320  -0.817045  -0.006059
     41       0.000034  -0.001113   0.000101  -0.001984  -0.014940  -0.000101
     42       0.005467  -0.001893  -0.392848  -0.005585  -0.005221   0.379972
     43      -0.010712   0.002805   0.604763   0.008422   0.007476  -0.571214
     44      -0.000132   0.000014   0.010936   0.000176   0.000191  -0.010548
     45       0.000177  -0.001346  -0.318578  -0.000200   0.000112  -0.347171
     46       0.002007  -0.002676  -0.611091  -0.001445   0.000006  -0.631189
     47      -0.000010   0.000067   0.013544  -0.000040  -0.000023   0.014538
     48      -0.174206   0.000267  -0.004525  -0.000990  -0.000976   0.003742
     49       0.033552  -0.000061  -0.000144  -0.000746   0.000465  -0.000054
     50      -0.249037   0.000257  -0.005922  -0.001778  -0.001072   0.004842
     51      -0.583788   0.000782  -0.004343  -0.010308   0.001145   0.002994
     52      -0.674396   0.000946  -0.002932  -0.015102   0.001768   0.002023
     53       0.019459  -0.000037   0.000128   0.000357  -0.000036  -0.000104
     54      -0.166451   0.000025  -0.005196  -0.000935  -0.000886   0.003833
     55       0.035733   0.000029   0.000024  -0.000810   0.000470  -0.000134
     56       0.269286  -0.000093   0.007611   0.001951   0.001117  -0.005607
     57       0.008090  -0.018521   0.005162  -0.558728   0.075714  -0.003022
     58       0.015143  -0.023962   0.006520  -0.812269   0.110639  -0.004289
     59      -0.000268   0.000734  -0.000181   0.020206  -0.002780   0.000106


-----------
IR SPECTRUM
-----------

 Mode   freq       eps      Int      T**2         TX        TY        TZ
       cm**-1   L/(mol*cm) km/mol    a.u.
----------------------------------------------------------------------------
  6:     83.49   0.000588    2.97  0.002197  (-0.000100 -0.000016 -0.046872)
  7:    114.89   0.000051    0.26  0.000138  ( 0.010283  0.002247  0.005217)
  8:    161.55   0.000173    0.87  0.000334  ( 0.006597  0.000676 -0.017017)
  9:    207.53   0.000204    1.03  0.000307  ( 0.001093  0.000750  0.017466)
 10:    237.04   0.000292    1.48  0.000385  (-0.001454  0.000709  0.019547)
 11:    298.07   0.000117    0.59  0.000122  ( 0.000526 -0.010620  0.003008)
 12:    309.66   0.000295    1.49  0.000297  ( 0.007450  0.002743  0.015289)
 13:    344.70   0.000154    0.78  0.000140  (-0.011792 -0.000873 -0.000076)
 14:    358.62   0.000281    1.42  0.000244  (-0.010075  0.011938  0.000350)
 15:    437.50   0.001600    8.09  0.001141  ( 0.020197 -0.027055 -0.001174)
 16:    486.80   0.000300    1.52  0.000192  ( 0.004744  0.002925 -0.012695)
 17:    531.18   0.000874    4.42  0.000513  (-0.005254 -0.002854  0.021854)
 18:    534.94   0.000616    3.11  0.000359  ( 0.006115  0.017923  0.000838)
 19:    584.53   0.000117    0.59  0.000063  (-0.006568  0.003945 -0.001972)
 20:    604.52   0.000579    2.93  0.000299  ( 0.004561 -0.016597 -0.001698)
 21:    710.41   0.000010    0.05  0.000005  ( 0.001743  0.000404  0.001145)
 22:    744.06   0.000064    0.32  0.000027  (-0.000850  0.000249 -0.005101)
 23:    807.75   0.001230    6.22  0.000475  (-0.013596 -0.017039 -0.000389)
 24:    833.72   0.005765   29.14  0.002158  (-0.004456 -0.000315 -0.046239)
 25:    856.75   0.003583   18.11  0.001305  ( 0.004463  0.000721  0.035841)
 26:    906.56   0.000112    0.56  0.000038  ( 0.001169 -0.005951  0.001293)
 27:    927.01   0.007611   38.46  0.002562  (-0.001369 -0.000290 -0.050599)
 28:   1015.78   0.000335    1.69  0.000103  (-0.008481 -0.005541  0.000467)
 29:   1035.29   0.001164    5.88  0.000351  (-0.018559 -0.001911  0.001676)
 30:   1058.31   0.000173    0.87  0.000051  (-0.000148 -0.001132  0.007044)
 31:   1122.19   0.001599    8.08  0.000445  (-0.016263 -0.013412  0.000434)
 32:   1146.94   0.004240   21.43  0.001154  ( 0.033489  0.005667 -0.000036)
 33:   1162.88   0.002153   10.88  0.000578  ( 0.023425  0.005286 -0.000982)
 34:   1218.80   0.019657   99.34  0.005033  (-0.070890 -0.002665  0.000601)
 35:   1266.87   0.000570    2.88  0.000140  ( 0.006992  0.009562 -0.000403)
 36:   1348.32   0.001902    9.61  0.000440  ( 0.020677  0.003474  0.000802)
 37:   1394.77   0.001791    9.05  0.000401  (-0.019393  0.004961  0.000245)
 38:   1412.65   0.000040    0.20  0.000009  ( 0.001856 -0.002261  0.000452)
 39:   1425.47   0.003635   18.37  0.000796  ( 0.025043 -0.012968 -0.000704)
 40:   1456.39   0.000479    2.42  0.000103  ( 0.008884  0.004762  0.000964)
 41:   1465.61   0.002395   12.10  0.000510  (-0.019719 -0.011007 -0.000119)
 42:   1476.43   0.001829    9.24  0.000387  ( 0.000856  0.000354  0.019642)
 43:   1493.44   0.001978    9.99  0.000413  ( 0.004429  0.001929 -0.019746)
 44:   1499.91   0.003671   18.55  0.000764  (-0.023536 -0.014156  0.003073)
 45:   1517.76   0.003449   17.43  0.000709  ( 0.012108 -0.023613 -0.002221)
 46:   1565.17   0.034272  173.19  0.006833  ( 0.061313  0.055412 -0.001811)
 47:   1599.69   0.012582   63.59  0.002455  ( 0.030215  0.039259 -0.000576)
 48:   1660.28   0.002372   11.99  0.000446  ( 0.001977 -0.021023  0.000082)
 49:   1671.74   0.028024  141.62  0.005231  ( 0.034372  0.063634 -0.000771)
 50:   3062.50   0.004384   22.15  0.000447  ( 0.010691 -0.018232  0.000038)
 51:   3076.99   0.008510   43.01  0.000863  (-0.028862 -0.003310 -0.004369)
 52:   3124.10   0.001381    6.98  0.000138  (-0.000470 -0.000225 -0.011735)
 53:   3155.54   0.001305    6.59  0.000129  (-0.002921 -0.001317  0.010898)
 54:   3159.83   0.001968    9.94  0.000194  ( 0.008965  0.010662 -0.000515)
 55:   3190.34   0.000459    2.32  0.000045  ( 0.000969 -0.006607 -0.000552)
 56:   3192.99   0.000769    3.89  0.000075  (-0.002557 -0.008284  0.000035)
 57:   3239.03   0.000478    2.42  0.000046  ( 0.000173  0.006785 -0.000114)
 58:   3252.97   0.000594    3.00  0.000057  ( 0.007535  0.000419 -0.000016)
 59:   3289.01   0.000159    0.81  0.000015  (-0.003660  0.001314  0.000105)

* The epsilon (eps) is given for a Dirac delta lineshape.
** The dipole moment derivative (T) already includes vibrational overlap.

The first frequency considered to be a vibration is 6
The total number of vibrations considered is 54


--------------------------
THERMOCHEMISTRY AT 298.15K
--------------------------

Temperature         ... 298.15 K
Pressure            ... 1.00 atm
Total Mass          ... 136.17 AMU

Throughout the following assumptions are being made:
  (1) The electronic state is orbitally nondegenerate
      but the spin degeneracy is treated
  (2) There are no thermally accessible electronically excited states
  (3) Hindered rotations indicated by low frequency modes are not
      treated as such but are treated as vibrations and this may
      cause some error
  (4) All equations used are the standard statistical mechanics
      equations for an ideal gas
  (5) All vibrations are strictly harmonic

freq.      83.49  E(vib)   ...       0.48 
freq.     114.89  E(vib)   ...       0.44 
freq.     161.55  E(vib)   ...       0.39 
freq.     207.53  E(vib)   ...       0.34 
freq.     237.04  E(vib)   ...       0.32 
freq.     298.07  E(vib)   ...       0.27 
freq.     309.66  E(vib)   ...       0.26 
freq.     344.70  E(vib)   ...       0.23 
freq.     358.62  E(vib)   ...       0.22 
freq.     437.50  E(vib)   ...       0.17 
freq.     486.80  E(vib)   ...       0.15 
freq.     531.18  E(vib)   ...       0.13 
freq.     534.94  E(vib)   ...       0.13 
freq.     584.53  E(vib)   ...       0.11 
freq.     604.52  E(vib)   ...       0.10 
freq.     710.41  E(vib)   ...       0.07 
freq.     744.06  E(vib)   ...       0.06 
freq.     807.75  E(vib)   ...       0.05 
freq.     833.72  E(vib)   ...       0.04 
freq.     856.75  E(vib)   ...       0.04 
freq.     906.56  E(vib)   ...       0.03 
freq.     927.01  E(vib)   ...       0.03 
freq.    1015.78  E(vib)   ...       0.02 
freq.    1035.29  E(vib)   ...       0.02 
freq.    1058.31  E(vib)   ...       0.02 
freq.    1122.19  E(vib)   ...       0.01 
freq.    1146.94  E(vib)   ...       0.01 
freq.    1162.88  E(vib)   ...       0.01 
freq.    1218.80  E(vib)   ...       0.01 
freq.    1266.87  E(vib)   ...       0.01 
freq.    1348.32  E(vib)   ...       0.01 
freq.    1394.77  E(vib)   ...       0.00 
freq.    1412.65  E(vib)   ...       0.00 
freq.    1425.47  E(vib)   ...       0.00 
freq.    1456.39  E(vib)   ...       0.00 
freq.    1465.61  E(vib)   ...       0.00 
freq.    1476.43  E(vib)   ...       0.00 
freq.    1493.44  E(vib)   ...       0.00 
freq.    1499.91  E(vib)   ...       0.00 
freq.    1517.76  E(vib)   ...       0.00 
freq.    1565.17  E(vib)   ...       0.00 
freq.    1599.69  E(vib)   ...       0.00 
freq.    1660.28  E(vib)   ...       0.00 
freq.    1671.74  E(vib)   ...       0.00 
freq.    3062.50  E(vib)   ...       0.00 
freq.    3076.99  E(vib)   ...       0.00 
freq.    3124.10  E(vib)   ...       0.00 
freq.    3155.54  E(vib)   ...       0.00 
freq.    3159.83  E(vib)   ...       0.00 
freq.    3190.34  E(vib)   ...       0.00 
freq.    3192.99  E(vib)   ...       0.00 
freq.    3239.03  E(vib)   ...       0.00 
freq.    3252.97  E(vib)   ...       0.00 
freq.    3289.01  E(vib)   ...       0.00 

------------
INNER ENERGY
------------

The inner energy is: U= E(el) + E(ZPE) + E(vib) + E(rot) + E(trans)
    E(el)   - is the total energy from the electronic structure calculation
              = E(kin-el) + E(nuc-el) + E(el-el) + E(nuc-nuc)
    E(ZPE)  - the the zero temperature vibrational energy from the frequency calculation
    E(vib)  - the the finite temperature correction to E(ZPE) due to population
              of excited vibrational states
    E(rot)  - is the rotational thermal energy
    E(trans)- is the translational thermal energy

Summary of contributions to the inner energy U:
Electronic energy                ...   -440.76757181 Eh
Zero point energy                ...      0.16594014 Eh     104.13 kcal/mol
Thermal vibrational correction   ...      0.00671375 Eh       4.21 kcal/mol
Thermal rotational correction    ...      0.00141627 Eh       0.89 kcal/mol
Thermal translational correction ...      0.00141627 Eh       0.89 kcal/mol
-----------------------------------------------------------------------
Total thermal energy                   -440.59208538 Eh


Summary of corrections to the electronic energy:
(perhaps to be used in another calculation)
Total thermal correction                  0.00954629 Eh       5.99 kcal/mol
Non-thermal (ZPE) correction              0.16594014 Eh     104.13 kcal/mol
-----------------------------------------------------------------------
Total correction                          0.17548643 Eh     110.12 kcal/mol


--------
ENTHALPY
--------

The enthalpy is H = U + kB*T
                kB is Boltzmann's constant
Total free energy                 ...   -440.59208538 Eh 
Thermal Enthalpy correction       ...      0.00094421 Eh       0.59 kcal/mol
-----------------------------------------------------------------------
Total Enthalpy                    ...   -440.59114117 Eh


Note: Only C1 symmetry has been detected, increase convergence thresholds 
      if your molecule has a higher symmetry. Symmetry factor of 1.0 is   
      used for the rotational entropy correction. 
 

Note: Rotational entropy computed according to Herzberg 
Infrared and Raman Spectra, Chapter V,1, Van Nostrand Reinhold, 1945 
Point Group:  C1, Symmetry Number:   1  
Rotational constants in cm-1:     0.059818     0.045174     0.025991 

Vibrational entropy computed according to the QRRHO of S. Grimme
Chem.Eur.J. 2012 18 9955


-------
ENTROPY
-------

The entropy contributions are T*S = T*(S(el)+S(vib)+S(rot)+S(trans))
     S(el)   - electronic entropy
     S(vib)  - vibrational entropy
     S(rot)  - rotational entropy
     S(trans)- translational entropy
The entropies will be listed as multiplied by the temperature to get
units of energy

Electronic entropy                ...      0.00065446 Eh      0.41 kcal/mol
Vibrational entropy               ...      0.01114564 Eh      6.99 kcal/mol
Rotational entropy                ...      0.01402572 Eh      8.80 kcal/mol
Translational entropy             ...      0.01930853 Eh     12.12 kcal/mol
-----------------------------------------------------------------------
Final entropy term                ...      0.04513435 Eh     28.32 kcal/mol

In case the symmetry of your molecule has not been determined correctly
or in case you have a reason to use a different symmetry number we print 
out the resulting rotational entropy values for sn=1,12 :
 --------------------------------------------------------
|  sn= 1 | S(rot)=       0.01402572 Eh      8.80 kcal/mol|
|  sn= 2 | S(rot)=       0.01337127 Eh      8.39 kcal/mol|
|  sn= 3 | S(rot)=       0.01298844 Eh      8.15 kcal/mol|
|  sn= 4 | S(rot)=       0.01271681 Eh      7.98 kcal/mol|
|  sn= 5 | S(rot)=       0.01250612 Eh      7.85 kcal/mol|
|  sn= 6 | S(rot)=       0.01233398 Eh      7.74 kcal/mol|
|  sn= 7 | S(rot)=       0.01218843 Eh      7.65 kcal/mol|
|  sn= 8 | S(rot)=       0.01206236 Eh      7.57 kcal/mol|
|  sn= 9 | S(rot)=       0.01195115 Eh      7.50 kcal/mol|
|  sn=10 | S(rot)=       0.01185167 Eh      7.44 kcal/mol|
|  sn=11 | S(rot)=       0.01176168 Eh      7.38 kcal/mol|
|  sn=12 | S(rot)=       0.01167952 Eh      7.33 kcal/mol|
 --------------------------------------------------------


-------------------
GIBBS FREE ENERGY
-------------------

The Gibbs free energy is G = H - T*S

Total enthalpy                    ...   -440.59114117 Eh 
Total entropy correction          ...     -0.04513435 Eh    -28.32 kcal/mol
-----------------------------------------------------------------------
Final Gibbs free energy         ...   -440.63627553 Eh

For completeness - the Gibbs free energy minus the electronic energy
G-E(el)                           ...      0.13129629 Eh     82.39 kcal/mol


Timings for individual modules:

Sum of individual times         ...     1217.812 sec (=  20.297 min)
GTO integral calculation        ...       26.489 sec (=   0.441 min)   2.2 %
SCF iterations                  ...      488.712 sec (=   8.145 min)  40.1 %
SCF Gradient evaluation         ...       94.565 sec (=   1.576 min)   7.8 %
Geometry relaxation             ...        1.238 sec (=   0.021 min)   0.1 %
Analytical frequency calculation...      606.808 sec (=  10.113 min)  49.8 %
                             ****ORCA TERMINATED NORMALLY****
TOTAL RUN TIME: 0 days 0 hours 21 minutes 4 seconds 457 msec
