
                                 *****************
                                 * O   R   C   A *
                                 *****************

                                            #,                                       
                                            ###                                      
                                            ####                                     
                                            #####                                    
                                            ######                                   
                                           ########,                                 
                                     ,,################,,,,,                         
                               ,,#################################,,                 
                          ,,##########################################,,             
                       ,#########################################, ''#####,          
                    ,#############################################,,   '####,        
                  ,##################################################,,,,####,       
                ,###########''''           ''''###############################       
              ,#####''   ,,,,##########,,,,          '''####'''          '####       
            ,##' ,,,,###########################,,,                        '##       
           ' ,,###''''                  '''############,,,                           
         ,,##''                                '''############,,,,        ,,,,,,###''
      ,#''                                            '''#######################'''  
     '                                                          ''''####''''         
             ,#######,   #######,   ,#######,      ##                                
            ,#'     '#,  ##    ##  ,#'     '#,    #''#        ######   ,####,        
            ##       ##  ##   ,#'  ##            #'  '#       #        #'  '#        
            ##       ##  #######   ##           ,######,      #####,   #    #        
            '#,     ,#'  ##    ##  '#,     ,#' ,#      #,         ##   #,  ,#        
             '#######'   ##     ##  '#######'  #'      '#     #####' # '####'        



                  #######################################################
                  #                        -***-                        #
                  #          Department of theory and spectroscopy      #
                  #    Directorship and core code : Frank Neese         #
                  #        Max Planck Institute fuer Kohlenforschung    #
                  #                Kaiser Wilhelm Platz 1               #
                  #                 D-45470 Muelheim/Ruhr               #
                  #                      Germany                        #
                  #                                                     #
                  #                  All rights reserved                #
                  #                        -***-                        #
                  #######################################################


                         Program Version 5.0.4 -  RELEASE  -


 With contributions from (in alphabetic order):
   Daniel Aravena         : Magnetic Suceptibility
   Michael Atanasov       : Ab Initio Ligand Field Theory (pilot matlab implementation)
   Alexander A. Auer      : GIAO ZORA, VPT2 properties, NMR spectrum
   Ute Becker             : Parallelization
   Giovanni Bistoni       : ED, misc. LED, open-shell LED, HFLD
   Martin Brehm           : Molecular dynamics
   Dmytro Bykov           : SCF Hessian
   Vijay G. Chilkuri      : MRCI spin determinant printing, contributions to CSF-ICE
   Dipayan Datta          : RHF DLPNO-CCSD density
   Achintya Kumar Dutta   : EOM-CC, STEOM-CC
   Dmitry Ganyushin       : Spin-Orbit,Spin-Spin,Magnetic field MRCI
   Miquel Garcia          : C-PCM and meta-GGA Hessian, CC/C-PCM, Gaussian charge scheme
   Yang Guo               : DLPNO-NEVPT2, F12-NEVPT2, CIM, IAO-localization
   Andreas Hansen         : Spin unrestricted coupled pair/coupled cluster methods
   Benjamin Helmich-Paris : MC-RPA, TRAH-SCF, COSX integrals
   Lee Huntington         : MR-EOM, pCC
   Robert Izsak           : Overlap fitted RIJCOSX, COSX-SCS-MP3, EOM
   Marcus Kettner         : VPT2
   Christian Kollmar      : KDIIS, OOCD, Brueckner-CCSD(T), CCSD density, CASPT2, CASPT2-K
   Simone Kossmann        : Meta GGA functionals, TD-DFT gradient, OOMP2, MP2 Hessian
   Martin Krupicka        : Initial AUTO-CI
   Lucas Lang             : DCDCAS
   Marvin Lechner         : AUTO-CI (C++ implementation), FIC-MRCC
   Dagmar Lenk            : GEPOL surface, SMD
   Dimitrios Liakos       : Extrapolation schemes; Compound Job, initial MDCI parallelization
   Dimitrios Manganas     : Further ROCIS development; embedding schemes
   Dimitrios Pantazis     : SARC Basis sets
   Anastasios Papadopoulos: AUTO-CI, single reference methods and gradients
   Taras Petrenko         : DFT Hessian,TD-DFT gradient, ASA, ECA, R-Raman, ABS, FL, XAS/XES, NRVS
   Peter Pinski           : DLPNO-MP2, DLPNO-MP2 Gradient
   Christoph Reimann      : Effective Core Potentials
   Marius Retegan         : Local ZFS, SOC
   Christoph Riplinger    : Optimizer, TS searches, QM/MM, DLPNO-CCSD(T), (RO)-DLPNO pert. Triples
   Tobias Risthaus        : Range-separated hybrids, TD-DFT gradient, RPA, STAB
   Michael Roemelt        : Original ROCIS implementation
   Masaaki Saitow         : Open-shell DLPNO-CCSD energy and density
   Barbara Sandhoefer     : DKH picture change effects
   Avijit Sen             : IP-ROCIS
   Kantharuban Sivalingam : CASSCF convergence, NEVPT2, FIC-MRCI
   Bernardo de Souza      : ESD, SOC TD-DFT
   Georgi Stoychev        : AutoAux, RI-MP2 NMR, DLPNO-MP2 response
   Willem Van den Heuvel  : Paramagnetic NMR
   Boris Wezisla          : Elementary symmetry handling
   Frank Wennmohs         : Technical directorship


 We gratefully acknowledge several colleagues who have allowed us to
 interface, adapt or use parts of their codes:
   Stefan Grimme, W. Hujo, H. Kruse, P. Pracht,  : VdW corrections, initial TS optimization,
                  C. Bannwarth, S. Ehlert          DFT functionals, gCP, sTDA/sTD-DF
   Ed Valeev, F. Pavosevic, A. Kumar             : LibInt (2-el integral package), F12 methods
   Garnet Chan, S. Sharma, J. Yang, R. Olivares  : DMRG
   Ulf Ekstrom                                   : XCFun DFT Library
   Mihaly Kallay                                 : mrcc  (arbitrary order and MRCC methods)
   Jiri Pittner, Ondrej Demel                    : Mk-CCSD
   Frank Weinhold                                : gennbo (NPA and NBO analysis)
   Christopher J. Cramer and Donald G. Truhlar   : smd solvation model
   Lars Goerigk                                  : TD-DFT with DH, B97 family of functionals
   V. Asgeirsson, H. Jonsson                     : NEB implementation
   FAccTs GmbH                                   : IRC, NEB, NEB-TS, DLPNO-Multilevel, CI-OPT
                                                   MM, QMMM, 2- and 3-layer-ONIOM, Crystal-QMMM,
                                                   LR-CPCM, SF, NACMEs, symmetry and pop. for TD-DFT,
                                                   nearIR, NL-DFT gradient (VV10), updates on ESD,
                                                   ML-optimized integration grids
   S Lehtola, MJT Oliveira, MAL Marques          : LibXC Library
   Liviu Ungur et al                             : ANISO software


 Your calculation uses the libint2 library for the computation of 2-el integrals
 For citations please refer to: http://libint.valeyev.net

 Your ORCA version has been built with support for libXC version: 5.1.0
 For citations please refer to: https://tddft.org/programs/libxc/

 This ORCA versions uses:
   CBLAS   interface :  Fast vector & matrix operations
   LAPACKE interface :  Fast linear algebra routines
   SCALAPACK package :  Parallel linear algebra routines
   Shared memory     :  Shared parallel matrices
   BLAS/LAPACK       :  OpenBLAS 0.3.15  USE64BITINT DYNAMIC_ARCH NO_AFFINITY SkylakeX SINGLE_THREADED
        Core in use  :  SkylakeX
   Copyright (c) 2011-2014, The OpenBLAS Project




***************************************
The coordinates will be read from file: model.xyz
***************************************


================================================================================

----- Orbital basis set information -----
Your calculation utilizes the basis: EPR-II
   V. Barone, in Recent Advances in Density Functional Methods, Part 1 (ed. D. P. Chong), World Scientific, Singapore, 1995, p. 287.

----- AuxJ basis set information -----
Your calculation utilizes the auxiliary basis: def2/J
   F. Weigend, Phys. Chem. Chem. Phys. 8, 1057 (2006).

================================================================================
                                        WARNINGS
                       Please study these warnings very carefully!
================================================================================


WARNING: your system is open-shell and RHF/RKS was chosen
  ===> : WILL SWITCH to UHF/UKS


WARNING: Geometry Optimization
  ===> : Switching off AutoStart
         For restart on a previous wavefunction, please use MOREAD

INFO   : the flag for use of the SHARK integral package has been found!

================================================================================
                                       INPUT FILE
================================================================================
NAME = opt_EPRII.inp
|  1> ! B3LYP EPR-II OPT
|  2> %pal nprocs 16 end
|  3> *XYZFile 0 2 model.xyz
|  4> 
|  5>                          ****END OF INPUT****
================================================================================

                       *****************************
                       * Geometry Optimization Run *
                       *****************************

Geometry optimization settings:
Update method            Update   .... BFGS
Choice of coordinates    CoordSys .... Z-matrix Internals
Initial Hessian          InHess   .... Almoef's Model

Convergence Tolerances:
Energy Change            TolE     ....  5.0000e-06 Eh
Max. Gradient            TolMAXG  ....  3.0000e-04 Eh/bohr
RMS Gradient             TolRMSG  ....  1.0000e-04 Eh/bohr
Max. Displacement        TolMAXD  ....  4.0000e-03 bohr
RMS Displacement         TolRMSD  ....  2.0000e-03 bohr
Strict Convergence                ....  False
------------------------------------------------------------------------------
                        ORCA OPTIMIZATION COORDINATE SETUP
------------------------------------------------------------------------------

The optimization will be done in new redundant internal coordinates
Making redundant internal coordinates   ...  (new redundants) done
Evaluating the initial hessian          ...  (Almloef) done
Evaluating the coordinates              ...  done
Calculating the B-matrix                .... done
Calculating the G-matrix                .... done
Diagonalizing the G-matrix              .... done
The first mode is                       ....   39
The number of degrees of freedom        ....   54

    -----------------------------------------------------------------
                    Redundant Internal Coordinates


    -----------------------------------------------------------------
         Definition                    Initial Value    Approx d2E/dq
    -----------------------------------------------------------------
      1. B(C   1,N   0)                  1.4651         0.424713   
      2. B(C   2,N   0)                  1.3181         0.728747   
      3. B(C   3,C   2)                  1.3875         0.630638   
      4. B(O   4,C   3)                  1.3591         0.626931   
      5. B(C   5,C   3)                  1.3910         0.622407   
      6. B(C   6,C   5)                  1.5069         0.406605   
      7. B(C   7,C   5)                  1.3857         0.634744   
      8. B(C   8,C   7)                  1.5070         0.406447   
      9. B(C   9,C   7)                  1.3821         0.643106   
     10. B(C   9,N   0)                  1.3188         0.726950   
     11. B(H  10,C   1)                  1.0900         0.360066   
     12. B(H  11,C   1)                  1.0900         0.360131   
     13. B(H  12,C   1)                  1.0900         0.360164   
     14. B(H  13,C   2)                  1.0800         0.373612   
     15. B(H  14,C   6)                  1.0900         0.360152   
     16. B(H  15,C   6)                  1.0900         0.360092   
     17. B(H  16,C   8)                  1.0900         0.360089   
     18. B(H  17,C   8)                  1.0899         0.360177   
     19. B(H  18,C   8)                  1.0900         0.360125   
     20. B(H  19,C   9)                  1.0800         0.373533   
     21. A(C   1,N   0,C   2)          119.1080         0.412165   
     22. A(C   2,N   0,C   9)          121.7828         0.453967   
     23. A(C   1,N   0,C   9)          119.1087         0.411985   
     24. A(H  11,C   1,H  12)          109.4750         0.290851   
     25. A(N   0,C   1,H  10)          109.4642         0.329254   
     26. A(H  10,C   1,H  11)          109.4708         0.290839   
     27. A(N   0,C   1,H  11)          109.4714         0.329264   
     28. A(N   0,C   1,H  12)          109.4709         0.329268   
     29. A(H  10,C   1,H  12)          109.4750         0.290843   
     30. A(C   3,C   2,H  13)          119.6612         0.356145   
     31. A(N   0,C   2,H  13)          119.6587         0.362761   
     32. A(N   0,C   2,C   3)          120.6801         0.445346   
     33. A(C   2,C   3,O   4)          120.4750         0.433413   
     34. A(O   4,C   3,C   5)          120.4720         0.432390   
     35. A(C   2,C   3,C   5)          119.0530         0.435701   
     36. A(C   3,C   5,C   7)          118.3715         0.436211   
     37. A(C   3,C   5,C   6)          120.8119         0.402916   
     38. A(C   6,C   5,C   7)          120.8166         0.404314   
     39. A(C   5,C   6,H  15)          109.4758         0.328874   
     40. A(C   5,C   6,H  14)          109.4703         0.328883   
     41. A(H  14,C   6,H  15)          109.4681         0.290845   
     42. A(C   8,C   7,C   9)          120.3840         0.405221   
     43. A(C   5,C   7,C   9)          119.2267         0.438791   
     44. A(C   5,C   7,C   8)          120.3888         0.404286   
     45. A(H  16,C   8,H  18)          109.4691         0.290841   
     46. A(C   7,C   8,H  18)          109.4678         0.328858   
     47. A(H  16,C   8,H  17)          109.4731         0.290848   
     48. A(C   7,C   8,H  17)          109.4721         0.328865   
     49. A(C   7,C   8,H  16)          109.4693         0.328852   
     50. A(H  17,C   8,H  18)          109.4760         0.290852   
     51. A(N   0,C   9,C   7)          120.8842         0.446728   
     52. A(C   7,C   9,H  19)          119.5582         0.357319   
     53. A(N   0,C   9,H  19)          119.5561         0.362595   
     54. D(H  10,C   1,N   0,C   2)     90.0039         0.015379   
     55. D(H  11,C   1,N   0,C   2)   -150.0008         0.015379   
     56. D(H  11,C   1,N   0,C   9)     29.7233         0.015379   
     57. D(H  12,C   1,N   0,C   2)    -29.9962         0.015379   
     58. D(H  10,C   1,N   0,C   9)    -90.2720         0.015379   
     59. D(H  12,C   1,N   0,C   9)    149.7279         0.015379   
     60. D(C   3,C   2,N   0,C   1)    179.9962         0.044316   
     61. D(H  13,C   2,N   0,C   1)     -0.0235         0.044316   
     62. D(H  13,C   2,N   0,C   9)   -179.7399         0.044316   
     63. D(C   3,C   2,N   0,C   9)      0.2798         0.044316   
     64. D(C   5,C   3,C   2,H  13)    179.9961         0.027579   
     65. D(O   4,C   3,C   2,H  13)      0.0227         0.027579   
     66. D(O   4,C   3,C   2,N   0)   -179.9970         0.027579   
     67. D(C   5,C   3,C   2,N   0)     -0.0236         0.027579   
     68. D(C   6,C   5,C   3,C   2)   -179.9788         0.026819   
     69. D(C   7,C   5,C   3,O   4)    179.9778         0.026819   
     70. D(C   7,C   5,C   3,C   2)      0.0044         0.026819   
     71. D(C   6,C   5,C   3,O   4)     -0.0054         0.026819   
     72. D(H  15,C   6,C   5,C   7)    150.0170         0.011348   
     73. D(H  15,C   6,C   5,C   3)    -30.0002         0.011348   
     74. D(H  14,C   6,C   5,C   7)     30.0186         0.011348   
     75. D(H  14,C   6,C   5,C   3)   -149.9986         0.011348   
     76. D(C   9,C   7,C   5,C   6)    179.7596         0.027962   
     77. D(C   9,C   7,C   5,C   3)     -0.2236         0.027962   
     78. D(C   8,C   7,C   5,C   6)      0.0030         0.027962   
     79. D(C   8,C   7,C   5,C   3)   -179.9802         0.027962   
     80. D(H  17,C   8,C   7,C   9)     30.2429         0.012243   
     81. D(H  17,C   8,C   7,C   5)   -150.0034         0.012243   
     82. D(H  16,C   8,C   7,C   9)    -89.7588         0.012243   
     83. D(H  18,C   8,C   7,C   5)    -29.9992         0.012243   
     84. D(H  16,C   8,C   7,C   5)     89.9949         0.012243   
     85. D(H  18,C   8,C   7,C   9)    150.2471         0.012243   
     86. D(H  19,C   9,C   7,C   8)     -0.2189         0.028754   
     87. D(N   0,C   9,C   7,C   8)   -179.7646         0.028754   
     88. D(N   0,C   9,C   7,C   5)      0.4787         0.028754   
     89. D(H  19,C   9,N   0,C   2)    179.9432         0.044075   
     90. D(H  19,C   9,N   0,C   1)      0.2267         0.044075   
     91. D(H  19,C   9,C   7,C   5)   -179.9755         0.028754   
     92. D(C   7,C   9,N   0,C   2)     -0.5111         0.044075   
     93. D(C   7,C   9,N   0,C   1)    179.7725         0.044075   
    -----------------------------------------------------------------

Number of atoms                         .... 20
Number of degrees of freedom            .... 93

         *************************************************************
         *                GEOMETRY OPTIMIZATION CYCLE   1            *
         *************************************************************
---------------------------------
CARTESIAN COORDINATES (ANGSTROEM)
---------------------------------
  N     -1.639000   -0.028000   -0.002500
  C     -3.104000   -0.042300    0.001900
  C     -1.009100    1.129800   -0.013900
  C      0.377400    1.181400   -0.018300
  O      1.022600    2.377500   -0.030000
  C      1.097700   -0.008600   -0.010000
  C      2.604600    0.001200   -0.013900
  C      0.395600   -1.203200    0.002300
  C      1.130100   -2.519100    0.012100
  C     -0.986200   -1.173800    0.010600
  H     -3.470200   -0.054400   -1.024700
  H     -3.457100   -0.931500    0.524100
  H     -3.474500    0.848300    0.509400
  H     -1.578100    2.047700   -0.020200
  H      2.972400   -0.890700   -0.521100
  H      2.960900    0.889100   -0.536200
  H      1.309800   -2.827200    1.042100
  H      0.528800   -3.274600   -0.493500
  H      2.083000   -2.407100   -0.505100
  H     -1.538800   -2.101700    0.020600

----------------------------
CARTESIAN COORDINATES (A.U.)
----------------------------
  NO LB      ZA    FRAG     MASS         X           Y           Z
   0 N     7.0000    0    14.007   -3.097261   -0.052912   -0.004724
   1 C     6.0000    0    12.011   -5.865710   -0.079935    0.003590
   2 C     6.0000    0    12.011   -1.906923    2.135013   -0.026267
   3 C     6.0000    0    12.011    0.713183    2.232522   -0.034582
   4 O     8.0000    0    15.999    1.932434    4.492824   -0.056692
   5 C     6.0000    0    12.011    2.074352   -0.016252   -0.018897
   6 C     6.0000    0    12.011    4.921981    0.002268   -0.026267
   7 C     6.0000    0    12.011    0.747576   -2.273718    0.004346
   8 C     6.0000    0    12.011    2.135580   -4.760409    0.022866
   9 C     6.0000    0    12.011   -1.863648   -2.218161    0.020031
  10 H     1.0000    0     1.008   -6.557728   -0.102801   -1.936402
  11 H     1.0000    0     1.008   -6.532972   -1.760280    0.990405
  12 H     1.0000    0     1.008   -6.565853    1.603055    0.962626
  13 H     1.0000    0     1.008   -2.982177    3.869592   -0.038172
  14 H     1.0000    0     1.008    5.617022   -1.683179   -0.984736
  15 H     1.0000    0     1.008    5.595290    1.680156   -1.013271
  16 H     1.0000    0     1.008    2.475163   -5.342634    1.969284
  17 H     1.0000    0     1.008    0.999287   -6.188097   -0.932580
  18 H     1.0000    0     1.008    3.936300   -4.548760   -0.954501
  19 H     1.0000    0     1.008   -2.907911   -3.971637    0.038928

--------------------------------
INTERNAL COORDINATES (ANGSTROEM)
--------------------------------
 N      0   0   0     0.000000000000     0.00000000     0.00000000
 C      1   0   0     1.465076397325     0.00000000     0.00000000
 C      1   2   0     1.318106524527   119.10797765     0.00000000
 C      3   1   2     1.387466817621   120.68008137   179.99623036
 O      4   3   1     1.359071425643   120.47503414   180.00299587
 C      4   3   1     1.391043126578   119.05296922   359.97637115
 C      6   4   3     1.506936913079   120.81190682   180.02122456
 C      6   4   3     1.385700133507   118.37145526     0.00000000
 C      8   6   4     1.507043164611   120.38876869   180.01979887
 C      1   2   3     1.318778635708   119.10866356   179.72411720
 H      2   1   3     1.090025875840   109.46419075    90.00390716
 H      2   1   3     1.089976646539   109.47141296   209.99920244
 H      2   1   3     1.089951769575   109.47093075   330.00378798
 H      3   1   2     1.079972731137   119.65869762   359.97650754
 H      7   6   4     1.089960682777   109.47028151   210.00135149
 H      7   6   4     1.090006142185   109.47578485   329.99975177
 H      9   8   6     1.090008119236   109.46934666    89.99493152
 H      9   8   6     1.089941879184   109.47206789   209.99661413
 H      9   8   6     1.089980848456   109.46775394   330.00084856
 H     10   1   2     1.080030170875   119.55605401     0.22674066

---------------------------
INTERNAL COORDINATES (A.U.)
---------------------------
 N      0   0   0     0.000000000000     0.00000000     0.00000000
 C      1   0   0     2.768593156217     0.00000000     0.00000000
 C      1   2   0     2.490860346690   119.10797765     0.00000000
 C      3   1   2     2.621932305207   120.68008137   179.99623036
 O      4   3   1     2.568272790904   120.47503414   180.00299587
 C      4   3   1     2.628690549706   119.05296922   359.97637115
 C      6   4   3     2.847698066816   120.81190682   180.02122456
 C      6   4   3     2.618593756065   118.37145526     0.00000000
 C      8   6   4     2.847898853112   120.38876869   180.01979887
 C      1   2   3     2.492130452755   119.10866356   179.72411720
 H      2   1   3     2.059850384225   109.46419075    90.00390716
 H      2   1   3     2.059757354328   109.47141296   209.99920244
 H      2   1   3     2.059710343680   109.47093075   330.00378798
 H      3   1   2     2.040852693952   119.65869762   359.97650754
 H      7   6   4     2.059727187191   109.47028151   210.00135149
 H      7   6   4     2.059813093021   109.47578485   329.99975177
 H      9   8   6     2.059816829106   109.46934666    89.99493152
 H      9   8   6     2.059691653550   109.47206789   209.99661413
 H      9   8   6     2.059765294800   109.46775394   330.00084856
 H     10   1   2     2.040961239326   119.55605401     0.22674066

---------------------
BASIS SET INFORMATION
---------------------
There are 4 groups of distinct atoms

 Group   1 Type N   : 10s5p1d contracted to 6s2p1d pattern {511111/41/1}
 Group   2 Type C   : 10s5p1d contracted to 6s2p1d pattern {511111/41/1}
 Group   3 Type O   : 10s5p1d contracted to 6s2p1d pattern {511111/41/1}
 Group   4 Type H   : 6s1p contracted to 4s1p pattern {3111/1}

Atom   0N    basis set group =>   1
Atom   1C    basis set group =>   2
Atom   2C    basis set group =>   2
Atom   3C    basis set group =>   2
Atom   4O    basis set group =>   3
Atom   5C    basis set group =>   2
Atom   6C    basis set group =>   2
Atom   7C    basis set group =>   2
Atom   8C    basis set group =>   2
Atom   9C    basis set group =>   2
Atom  10H    basis set group =>   4
Atom  11H    basis set group =>   4
Atom  12H    basis set group =>   4
Atom  13H    basis set group =>   4
Atom  14H    basis set group =>   4
Atom  15H    basis set group =>   4
Atom  16H    basis set group =>   4
Atom  17H    basis set group =>   4
Atom  18H    basis set group =>   4
Atom  19H    basis set group =>   4
---------------------------------
AUXILIARY/J BASIS SET INFORMATION
---------------------------------
There are 4 groups of distinct atoms

 Group   1 Type N   : 12s5p4d2f1g contracted to 6s4p3d1f1g pattern {711111/2111/211/2/1}
 Group   2 Type C   : 12s5p4d2f1g contracted to 6s4p3d1f1g pattern {711111/2111/211/2/1}
 Group   3 Type O   : 12s5p4d2f1g contracted to 6s4p3d1f1g pattern {711111/2111/211/2/1}
 Group   4 Type H   : 5s2p1d contracted to 3s1p1d pattern {311/2/1}

Atom   0N    basis set group =>   1
Atom   1C    basis set group =>   2
Atom   2C    basis set group =>   2
Atom   3C    basis set group =>   2
Atom   4O    basis set group =>   3
Atom   5C    basis set group =>   2
Atom   6C    basis set group =>   2
Atom   7C    basis set group =>   2
Atom   8C    basis set group =>   2
Atom   9C    basis set group =>   2
Atom  10H    basis set group =>   4
Atom  11H    basis set group =>   4
Atom  12H    basis set group =>   4
Atom  13H    basis set group =>   4
Atom  14H    basis set group =>   4
Atom  15H    basis set group =>   4
Atom  16H    basis set group =>   4
Atom  17H    basis set group =>   4
Atom  18H    basis set group =>   4
Atom  19H    basis set group =>   4


           ************************************************************
           *        Program running with 16 parallel MPI-processes    *
           *              working on a common directory               *
           ************************************************************
------------------------------------------------------------------------------
                           ORCA GTO INTEGRAL CALCULATION
                           -- RI-GTO INTEGRALS CHOSEN --
------------------------------------------------------------------------------
------------------------------------------------------------------------------
                   ___                                                        
                  /   \      - P O W E R E D   B Y -                         
                 /     \                                                     
                 |  |  |   _    _      __       _____    __    __             
                 |  |  |  | |  | |    /  \     |  _  \  |  |  /  |          
                  \  \/   | |  | |   /    \    | | | |  |  | /  /          
                 / \  \   | |__| |  /  /\  \   | |_| |  |  |/  /          
                |  |  |   |  __  | /  /__\  \  |    /   |      \           
                |  |  |   | |  | | |   __   |  |    \   |  |\   \          
                \     /   | |  | | |  |  |  |  | |\  \  |  | \   \       
                 \___/    |_|  |_| |__|  |__|  |_| \__\ |__|  \__/        
                                                                              
                      - O R C A' S   B I G   F R I E N D -                    
                                      &                                       
                       - I N T E G R A L  F E E D E R -                       
                                                                              
 v1 FN, 2020, v2 2021                                                         
------------------------------------------------------------------------------


Reading SHARK input file opt_EPRII.SHARKINP.tmp ... ok
----------------------
SHARK INTEGRAL PACKAGE
----------------------

Number of atoms                             ...     20
Number of basis functions                   ...    240
Number of shells                            ...    140
Maximum angular momentum                    ...      2
Integral batch strategy                     ... SHARK/LIBINT Hybrid
RI-J (if used) integral strategy            ... SPLIT-RIJ (Revised 2003 algorithm where possible)
Printlevel                                  ...      1
Contraction scheme used                     ... SEGMENTED contraction
Coulomb Range Separation                    ... NOT USED
Exchange Range Separation                   ... NOT USED
Finite Nucleus Model                        ... NOT USED
Auxiliary Coulomb fitting basis             ... AVAILABLE
   # of basis functions in Aux-J            ...    600
   # of shells in Aux-J                     ...    200
   Maximum angular momentum in Aux-J        ...      4
Auxiliary J/K fitting basis                 ... NOT available
Auxiliary Correlation fitting basis         ... NOT available
Auxiliary 'external' fitting basis          ... NOT available
Integral threshold                          ...     2.500000e-11
Primitive cut-off                           ...     2.500000e-12
Primitive pair pre-selection threshold      ...     2.500000e-12

Calculating pre-screening integrals         ... done (  0.0 sec) Dimension = 140
Organizing shell pair data                  ... done (  0.1 sec)
Shell pair information
Total number of shell pairs                 ...      9870
Shell pairs after pre-screening             ...      7770
Total number of primitive shell pairs       ...     26755
Primitive shell pairs kept                  ...     16071
          la=0 lb=0:   3560 shell pairs
          la=1 lb=0:   2589 shell pairs
          la=1 lb=1:    435 shell pairs
          la=2 lb=0:    845 shell pairs
          la=2 lb=1:    286 shell pairs
          la=2 lb=2:     55 shell pairs

Calculating one electron integrals          ... done (  0.0 sec)
Calculating RI/J V-Matrix + Cholesky decomp.... done (  0.1 sec)
Calculating Nuclear repulsion               ... done (  0.0 sec) ENN=    512.096459677280 Eh

SHARK setup successfully completed in   0.4 seconds

Maximum memory used throughout the entire GTOINT-calculation: 15.5 MB


           ************************************************************
           *        Program running with 16 parallel MPI-processes    *
           *              working on a common directory               *
           ************************************************************
-------------------------------------------------------------------------------
                                 ORCA SCF
-------------------------------------------------------------------------------

------------
SCF SETTINGS
------------
Hamiltonian:
 Density Functional     Method          .... DFT(GTOs)
 Exchange Functional    Exchange        .... B88
   X-Alpha parameter    XAlpha          ....  0.666667
   Becke's b parameter  XBeta           ....  0.004200
 Correlation Functional Correlation     .... LYP
 LDA part of GGA corr.  LDAOpt          .... VWN-5
 Gradients option       PostSCFGGA      .... off
 Hybrid DFT is turned on
   Fraction HF Exchange ScalHFX         ....  0.200000
   Scaling of DF-GGA-X  ScalDFX         ....  0.720000
   Scaling of DF-GGA-C  ScalDFC         ....  0.810000
   Scaling of DF-LDA-C  ScalLDAC        ....  1.000000
   Perturbative correction              ....  0.000000
   Density functional embedding theory  .... OFF
   NL short-range parameter             ....  4.800000
 RI-approximation to the Coulomb term is turned on
   Number of AuxJ basis functions       .... 600
   RIJ-COSX (HFX calculated with COS-X)).... on


General Settings:
 Integral files         IntName         .... opt_EPRII
 Hartree-Fock type      HFTyp           .... UHF
 Total Charge           Charge          ....    0
 Multiplicity           Mult            ....    2
 Number of Electrons    NEL             ....   73
 Basis Dimension        Dim             ....  240
 Nuclear Repulsion      ENuc            ....    512.0964596773 Eh

Convergence Acceleration:
 DIIS                   CNVDIIS         .... on
   Start iteration      DIISMaxIt       ....    12
   Startup error        DIISStart       ....  0.200000
   # of expansion vecs  DIISMaxEq       ....     5
   Bias factor          DIISBfac        ....   1.050
   Max. coefficient     DIISMaxC        ....  10.000
 Trust-Rad. Augm. Hess. CNVTRAH         .... auto
   Auto Start mean grad. ratio tolernc. ....  1.125000
   Auto Start start iteration           ....    20
   Auto Start num. interpolation iter.  ....    10
   Max. Number of Micro iterations      ....    16
   Max. Number of Macro iterations      .... Maxiter - #DIIS iter
   Number of Davidson start vectors     ....     2
   Converg. threshold I  (grad. norm)   ....   1.000e-05
   Converg. threshold II (energy diff.) ....   1.000e-08
   Grad. Scal. Fac. for Micro threshold ....   0.100
   Minimum threshold for Micro iter.    ....   0.010
   NR start threshold (gradient norm)   ....   0.001
   Initial trust radius                 ....   0.400
   Minimum AH scaling param. (alpha)    ....   1.000
   Maximum AH scaling param. (alpha)    .... 1000.000
   Orbital update algorithm             .... Taylor
   White noise on init. David. guess    .... on
   Maximum white noise                  ....   0.010
   Quad. conv. algorithm                .... NR
 SOSCF                  CNVSOSCF        .... off
 Level Shifting         CNVShift        .... on
   Level shift para.    LevelShift      ....    0.2500
   Turn off err/grad.   ShiftErr        ....    0.0010
 Zerner damping         CNVZerner       .... off
 Static damping         CNVDamp         .... on
   Fraction old density DampFac         ....    0.7000
   Max. Damping (<1)    DampMax         ....    0.9800
   Min. Damping (>=0)   DampMin         ....    0.0000
   Turn off err/grad.   DampErr         ....    0.1000
 Fernandez-Rico         CNVRico         .... off

SCF Procedure:
 Maximum # iterations   MaxIter         ....   125
 SCF integral mode      SCFMode         .... Direct
   Integral package                     .... SHARK and LIBINT hybrid scheme
 Reset frequency        DirectResetFreq ....    20
 Integral Threshold     Thresh          ....  2.500e-11 Eh
 Primitive CutOff       TCut            ....  2.500e-12 Eh

Convergence Tolerance:
 Convergence Check Mode ConvCheckMode   .... Total+1el-Energy
 Convergence forced     ConvForced      .... 0
 Energy Change          TolE            ....  1.000e-08 Eh
 1-El. energy change                    ....  1.000e-05 Eh
 DIIS Error             TolErr          ....  5.000e-07


Diagonalization of the overlap matrix:
Smallest eigenvalue                        ... 2.490e-04
Time for diagonalization                   ...    0.013 sec
Threshold for overlap eigenvalues          ... 1.000e-08
Number of eigenvalues below threshold      ... 0
Time for construction of square roots      ...    0.021 sec
Total time needed                          ...    0.035 sec

Time for model grid setup =    0.144 sec

------------------------------
INITIAL GUESS: MODEL POTENTIAL
------------------------------
Loading Hartree-Fock densities                     ... done
Calculating cut-offs                               ... done
Initializing the effective Hamiltonian             ... done
Setting up the integral package (SHARK)            ... done
Starting the Coulomb interaction                   ... done (   0.1 sec)
Reading the grid                                   ... done
Mapping shells                                     ... done
Starting the XC term evaluation                    ... done (   0.1 sec)
  promolecular density results
     # of electrons  =     72.990967143
     EX              =    -58.881815219
     EC              =     -2.453023976
     EX+EC           =    -61.334839196
Transforming the Hamiltonian                       ... done (   0.0 sec)
Diagonalizing the Hamiltonian                      ... done (   0.0 sec)
Back transforming the eigenvectors                 ... done (   0.0 sec)
Now organizing SCF variables                       ... done
                      ------------------
                      INITIAL GUESS DONE (   0.5 sec)
                      ------------------
-------------------
DFT GRID GENERATION
-------------------

General Integration Accuracy     IntAcc      ... 4.388
Radial Grid Type                 RadialGrid  ... OptM3 with GC (2021)
Angular Grid (max. ang.)         AngularGrid ... 4 (Lebedev-302)
Angular grid pruning method      GridPruning ... 4 (adaptive)
Weight generation scheme         WeightScheme... Becke
Basis function cutoff            BFCut       ... 1.0000e-11
Integration weight cutoff        WCut        ... 1.0000e-14
Angular grids for H and He will be reduced by one unit
Partially contracted basis set               ... off
Rotationally invariant grid construction     ... off

Total number of grid points                  ...    92106
Total number of batches                      ...     1449
Average number of points per batch           ...       63
Average number of grid points per atom       ...     4605
Time for grid setup =    0.486 sec

--------------------
COSX GRID GENERATION
--------------------

GRIDX 1
-------
General Integration Accuracy     IntAcc      ... 3.816
Radial Grid Type                 RadialGrid  ... OptM3 with GC (2021)
Angular Grid (max. ang.)         AngularGrid ... 1 (Lebedev-50)
Angular grid pruning method      GridPruning ... 4 (adaptive)
Weight generation scheme         WeightScheme... Becke
Basis function cutoff            BFCut       ... 1.0000e-11
Integration weight cutoff        WCut        ... 1.0000e-14
Angular grids for H and He will be reduced by one unit
Partially contracted basis set               ... on
Rotationally invariant grid construction     ... off

Total number of grid points                  ...    11813
Total number of batches                      ...      195
Average number of points per batch           ...       60
Average number of grid points per atom       ...      591
UseSFitting                                  ... on

GRIDX 2
-------
General Integration Accuracy     IntAcc      ... 4.020
Radial Grid Type                 RadialGrid  ... OptM3 with GC (2021)
Angular Grid (max. ang.)         AngularGrid ... 2 (Lebedev-110)
Angular grid pruning method      GridPruning ... 4 (adaptive)
Weight generation scheme         WeightScheme... Becke
Basis function cutoff            BFCut       ... 1.0000e-11
Integration weight cutoff        WCut        ... 1.0000e-14
Angular grids for H and He will be reduced by one unit
Partially contracted basis set               ... on
Rotationally invariant grid construction     ... off

Total number of grid points                  ...    25380
Total number of batches                      ...      405
Average number of points per batch           ...       62
Average number of grid points per atom       ...     1269
UseSFitting                                  ... on

GRIDX 3
-------
General Integration Accuracy     IntAcc      ... 4.338
Radial Grid Type                 RadialGrid  ... OptM3 with GC (2021)
Angular Grid (max. ang.)         AngularGrid ... 3 (Lebedev-194)
Angular grid pruning method      GridPruning ... 4 (adaptive)
Weight generation scheme         WeightScheme... Becke
Basis function cutoff            BFCut       ... 1.0000e-11
Integration weight cutoff        WCut        ... 1.0000e-14
Angular grids for H and He will be reduced by one unit
Partially contracted basis set               ... on
Rotationally invariant grid construction     ... off

Total number of grid points                  ...    55686
Total number of batches                      ...      880
Average number of points per batch           ...       63
Average number of grid points per atom       ...     2784
UseSFitting                                  ... on

Time for X-Grid setup             =    0.917 sec

--------------
SCF ITERATIONS
--------------
ITER       Energy         Delta-E        Max-DP      RMS-DP      [F,P]     Damp
               ***  Starting incremental Fock matrix formation  ***
  0   -440.2626977030   0.000000000000 0.08675601  0.00151884  0.1464433 0.7000
  1   -440.3984419540  -0.135744251005 0.05324322  0.00106326  0.0487293 0.7000
                               ***Turning on DIIS***
  2   -440.4454377111  -0.046995757148 0.05758311  0.00150398  0.0174912 0.0000
  3   -440.5310830260  -0.085645314882 0.05371966  0.00094743  0.0227352 0.0000
  4   -440.5461982570  -0.015115231024 0.01620479  0.00028747  0.0174031 0.0000
  5   -440.5490666925  -0.002868435510 0.00674296  0.00011855  0.0049002 0.0000
  6   -440.5494088650  -0.000342172468 0.00384752  0.00006786  0.0026610 0.0000
  7   -440.5495580254  -0.000149160365 0.00291928  0.00004373  0.0015690 0.0000
  8   -440.5496500371  -0.000092011703 0.00266094  0.00003586  0.0012331 0.0000
  9   -440.5497070458  -0.000057008767 0.00316242  0.00004918  0.0007640 0.0000
               *** Restarting incremental Fock matrix formation ***
                                   *** Resetting DIIS ***
 10   -440.5497113424  -0.000004296593 0.00107880  0.00002098  0.0002981 0.0000
 11   -440.5497122094  -0.000000867016 0.00070822  0.00000928  0.0004737 0.0000
 12   -440.5497154793  -0.000003269810 0.00045517  0.00000465  0.0001771 0.0000
 13   -440.5497159724  -0.000000493107 0.00042635  0.00000450  0.0001543 0.0000
 14   -440.5497164773  -0.000000504970 0.00019549  0.00000185  0.0000587 0.0000
 15   -440.5497165237  -0.000000046385 0.00008409  0.00000092  0.0000353 0.0000
 16   -440.5497165507  -0.000000026951 0.00002179  0.00000030  0.0000103 0.0000
 17   -440.5497165560  -0.000000005334 0.00002177  0.00000024  0.0000081 0.0000
 18   -440.5497165591  -0.000000003113 0.00001164  0.00000015  0.0000055 0.0000
 19   -440.5497165597  -0.000000000550 0.00001467  0.00000012  0.0000057 0.0000
 20   -440.5497165671  -0.000000007397 0.00000786  0.00000009  0.0000045 0.0000
 21   -440.5497165643   0.000000002723 0.00000344  0.00000005  0.0000016 0.0000
 22   -440.5497165636   0.000000000701 0.00000445  0.00000006  0.0000017 0.0000
 23   -440.5497165622   0.000000001454 0.00000174  0.00000003  0.0000013 0.0000
                 **** Energy Check signals convergence ****

               *****************************************************
               *                     SUCCESS                       *
               *           SCF CONVERGED AFTER  24 CYCLES          *
               *****************************************************

Old exchange energy                            =    -11.961624629 Eh
New exchange energy                            =    -11.961658843 Eh
Exchange energy change after final integration =     -0.000034215 Eh
Total energy after final integration           =   -440.549750781 Eh
Final COS-X integration done in                =     1.498 sec

----------------
TOTAL SCF ENERGY
----------------

Total Energy       :         -440.54975078 Eh          -11987.96818 eV

Components:
Nuclear Repulsion  :          512.09645968 Eh           13934.85310 eV
Electronic Energy  :         -952.64621046 Eh          -25922.82128 eV
One Electron Energy:        -1610.99994510 Eh          -43837.53716 eV
Two Electron Energy:          658.35373464 Eh           17914.71589 eV
Max COSX asymmetry :            0.00000200 Eh               0.00005 eV

Virial components:
Potential Energy   :         -878.31968565 Eh          -23900.29371 eV
Kinetic Energy     :          437.76993487 Eh           11912.32554 eV
Virial Ratio       :            2.00634995


DFT components:
N(Alpha)           :       36.999987336348 electrons
N(Beta)            :       35.999991062280 electrons
N(Total)           :       72.999978398628 electrons
E(X)               :      -47.531865335597 Eh       
E(C)               :       -2.890514358494 Eh       
E(XC)              :      -50.422379694092 Eh       
DFET-embed. en.    :        0.000000000000 Eh       

---------------
SCF CONVERGENCE
---------------

  Last Energy change         ...   -3.7785e-09  Tolerance :   1.0000e-08
  Last MAX-Density change    ...    0.0000e+00  Tolerance :   1.0000e-07
  Last RMS-Density change    ...    0.0000e+00  Tolerance :   5.0000e-09
  Last DIIS Error            ...    5.8724e-07  Tolerance :   5.0000e-07

             **** THE GBW FILE WAS UPDATED (opt_EPRII.gbw) ****
             **** DENSITY opt_EPRII.scfp WAS UPDATED ****
             **** ENERGY FILE WAS UPDATED (opt_EPRII.en.tmp) ****
----------------------
UHF SPIN CONTAMINATION
----------------------

Warning: in a DFT calculation there is little theoretical justification to 
         calculate <S**2> as in Hartree-Fock theory. We will do it anyways
         but you should keep in mind that the values have only limited relevance

Expectation value of <S**2>     :     0.800150
Ideal value S*(S+1) for S=0.5   :     0.750000
Deviation                       :     0.050150

             **** THE GBW FILE WAS UPDATED (opt_EPRII.gbw) ****
             **** DENSITY opt_EPRII.scfp WAS UPDATED ****
----------------
ORBITAL ENERGIES
----------------
                 SPIN UP ORBITALS
  NO   OCC          E(Eh)            E(eV) 
   0   1.0000     -19.065697      -518.8040 
   1   1.0000     -14.441794      -392.9812 
   2   1.0000     -10.259713      -279.1810 
   3   1.0000     -10.238669      -278.6084 
   4   1.0000     -10.238437      -278.6020 
   5   1.0000     -10.236121      -278.5390 
   6   1.0000     -10.220541      -278.1151 
   7   1.0000     -10.201927      -277.6086 
   8   1.0000     -10.190383      -277.2944 
   9   1.0000     -10.183915      -277.1184 
  10   1.0000      -1.044148       -28.4127 
  11   1.0000      -0.927879       -25.2489 
  12   1.0000      -0.846404       -23.0318 
  13   1.0000      -0.789326       -21.4786 
  14   1.0000      -0.763321       -20.7710 
  15   1.0000      -0.725285       -19.7360 
  16   1.0000      -0.681429       -18.5426 
  17   1.0000      -0.619045       -16.8451 
  18   1.0000      -0.604561       -16.4509 
  19   1.0000      -0.546466       -14.8701 
  20   1.0000      -0.534462       -14.5435 
  21   1.0000      -0.512500       -13.9458 
  22   1.0000      -0.464389       -12.6367 
  23   1.0000      -0.457923       -12.4607 
  24   1.0000      -0.443865       -12.0782 
  25   1.0000      -0.438292       -11.9265 
  26   1.0000      -0.418591       -11.3904 
  27   1.0000      -0.409750       -11.1499 
  28   1.0000      -0.398276       -10.8376 
  29   1.0000      -0.373868       -10.1735 
  30   1.0000      -0.353181        -9.6105 
  31   1.0000      -0.341997        -9.3062 
  32   1.0000      -0.335725        -9.1355 
  33   1.0000      -0.294766        -8.0210 
  34   1.0000      -0.233048        -6.3416 
  35   1.0000      -0.207313        -5.6413 
  36   1.0000      -0.189979        -5.1696 
  37   0.0000      -0.040647        -1.1061 
  38   0.0000      -0.009972        -0.2714 
  39   0.0000      -0.006025        -0.1640 
  40   0.0000       0.017251         0.4694 
  41   0.0000       0.041215         1.1215 
  42   0.0000       0.047439         1.2909 
  43   0.0000       0.061438         1.6718 
  44   0.0000       0.077593         2.1114 
  45   0.0000       0.102680         2.7941 
  46   0.0000       0.108522         2.9530 
  47   0.0000       0.130559         3.5527 
  48   0.0000       0.137698         3.7469 
  49   0.0000       0.147872         4.0238 
  50   0.0000       0.155945         4.2435 
  51   0.0000       0.160660         4.3718 
  52   0.0000       0.176240         4.7957 
  53   0.0000       0.193981         5.2785 
  54   0.0000       0.209789         5.7087 
  55   0.0000       0.216089         5.8801 
  56   0.0000       0.216897         5.9021 
  57   0.0000       0.220276         5.9940 
  58   0.0000       0.235716         6.4141 
  59   0.0000       0.241652         6.5757 
  60   0.0000       0.246804         6.7159 
  61   0.0000       0.249850         6.7988 
  62   0.0000       0.265866         7.2346 
  63   0.0000       0.279066         7.5938 
  64   0.0000       0.284551         7.7430 
  65   0.0000       0.296882         8.0786 
  66   0.0000       0.308190         8.3863 
  67   0.0000       0.320200         8.7131 
  68   0.0000       0.322463         8.7747 
  69   0.0000       0.336907         9.1677 
  70   0.0000       0.347585         9.4583 
  71   0.0000       0.356505         9.7010 
  72   0.0000       0.368448        10.0260 
  73   0.0000       0.378691        10.3047 
  74   0.0000       0.387105        10.5337 
  75   0.0000       0.389499        10.5988 
  76   0.0000       0.418850        11.3975 
  77   0.0000       0.436976        11.8907 
  78   0.0000       0.441220        12.0062 
  79   0.0000       0.453141        12.3306 
  80   0.0000       0.459520        12.5042 
  81   0.0000       0.480198        13.0669 
  82   0.0000       0.490052        13.3350 
  83   0.0000       0.499070        13.5804 
  84   0.0000       0.500409        13.6168 
  85   0.0000       0.530171        14.4267 
  86   0.0000       0.544632        14.8202 
  87   0.0000       0.574277        15.6269 
  88   0.0000       0.583629        15.8814 
  89   0.0000       0.644380        17.5345 
  90   0.0000       0.651192        17.7198 
  91   0.0000       0.660265        17.9667 
  92   0.0000       0.673066        18.3150 
  93   0.0000       0.704647        19.1744 
  94   0.0000       0.748729        20.3740 
  95   0.0000       0.754806        20.5393 
  96   0.0000       0.774400        21.0725 
  97   0.0000       0.797627        21.7045 
  98   0.0000       0.810129        22.0447 
  99   0.0000       0.814377        22.1603 
 100   0.0000       0.823181        22.3999 
 101   0.0000       0.845362        23.0035 
 102   0.0000       0.866724        23.5848 
 103   0.0000       0.883055        24.0292 
 104   0.0000       0.886373        24.1194 
 105   0.0000       0.901496        24.5309 
 106   0.0000       0.909693        24.7540 
 107   0.0000       0.930167        25.3111 
 108   0.0000       0.934897        25.4398 
 109   0.0000       0.949901        25.8481 
 110   0.0000       0.966739        26.3063 
 111   0.0000       0.968614        26.3573 
 112   0.0000       0.984123        26.7793 
 113   0.0000       1.002062        27.2675 
 114   0.0000       1.017701        27.6930 
 115   0.0000       1.027419        27.9575 
 116   0.0000       1.034752        28.1570 
 117   0.0000       1.047560        28.5056 
 118   0.0000       1.079404        29.3721 
 119   0.0000       1.083960        29.4960 
 120   0.0000       1.085910        29.5491 
 121   0.0000       1.119348        30.4590 
 122   0.0000       1.126018        30.6405 
 123   0.0000       1.181214        32.1425 
 124   0.0000       1.182833        32.1865 
 125   0.0000       1.199162        32.6309 
 126   0.0000       1.243484        33.8369 
 127   0.0000       1.253560        34.1111 
 128   0.0000       1.271306        34.5940 
 129   0.0000       1.296206        35.2715 
 130   0.0000       1.326906        36.1069 
 131   0.0000       1.356902        36.9232 
 132   0.0000       1.364265        37.1235 
 133   0.0000       1.379226        37.5306 
 134   0.0000       1.408348        38.3231 
 135   0.0000       1.414408        38.4880 
 136   0.0000       1.446663        39.3657 
 137   0.0000       1.471617        40.0447 
 138   0.0000       1.496711        40.7276 
 139   0.0000       1.507010        41.0078 
 140   0.0000       1.520745        41.3816 
 141   0.0000       1.552007        42.2323 
 142   0.0000       1.558387        42.4059 
 143   0.0000       1.572992        42.8033 
 144   0.0000       1.592723        43.3402 
 145   0.0000       1.596514        43.4433 
 146   0.0000       1.621416        44.1210 
 147   0.0000       1.634535        44.4780 
 148   0.0000       1.656606        45.0785 
 149   0.0000       1.684507        45.8378 
 150   0.0000       1.687576        45.9213 
 151   0.0000       1.702221        46.3198 
 152   0.0000       1.718506        46.7629 
 153   0.0000       1.727059        46.9957 
 154   0.0000       1.747551        47.5533 
 155   0.0000       1.759274        47.8723 
 156   0.0000       1.785986        48.5991 
 157   0.0000       1.827927        49.7404 
 158   0.0000       1.848652        50.3044 
 159   0.0000       1.861894        50.6647 
 160   0.0000       1.883765        51.2599 
 161   0.0000       1.906668        51.8831 
 162   0.0000       1.936584        52.6971 
 163   0.0000       1.938739        52.7558 
 164   0.0000       1.959911        53.3319 
 165   0.0000       1.988089        54.0987 
 166   0.0000       2.018883        54.9366 
 167   0.0000       2.039278        55.4916 
 168   0.0000       2.055096        55.9220 
 169   0.0000       2.099179        57.1216 
 170   0.0000       2.104663        57.2708 
 171   0.0000       2.146101        58.3984 
 172   0.0000       2.165711        58.9320 
 173   0.0000       2.199200        59.8433 
 174   0.0000       2.228182        60.6319 
 175   0.0000       2.268622        61.7323 
 176   0.0000       2.309520        62.8452 
 177   0.0000       2.334932        63.5367 
 178   0.0000       2.356718        64.1296 
 179   0.0000       2.380121        64.7664 
 180   0.0000       2.395773        65.1923 
 181   0.0000       2.414643        65.7058 
 182   0.0000       2.423916        65.9581 
 183   0.0000       2.465259        67.0831 
 184   0.0000       2.468522        67.1719 
 185   0.0000       2.487149        67.6788 
 186   0.0000       2.505166        68.1690 
 187   0.0000       2.524637        68.6989 
 188   0.0000       2.530327        68.8537 
 189   0.0000       2.645229        71.9803 
 190   0.0000       2.694402        73.3184 
 191   0.0000       2.718806        73.9825 
 192   0.0000       2.732389        74.3521 
 193   0.0000       2.750007        74.8315 
 194   0.0000       2.799531        76.1791 
 195   0.0000       2.923579        79.5546 
 196   0.0000       3.022011        82.2331 
 197   0.0000       3.224196        87.7348 
 198   0.0000       3.324970        90.4770 
 199   0.0000       3.521123        95.8146 
 200   0.0000       4.960542       134.9832 
 201   0.0000       4.987593       135.7193 
 202   0.0000       5.010225       136.3352 
 203   0.0000       5.036653       137.0543 
 204   0.0000       5.080915       138.2587 
 205   0.0000       5.121786       139.3709 
 206   0.0000       5.213882       141.8769 
 207   0.0000       5.220184       142.0484 
 208   0.0000       5.266149       143.2992 
 209   0.0000       5.302613       144.2914 
 210   0.0000       5.383639       146.4963 
 211   0.0000       5.441054       148.0586 
 212   0.0000       5.470338       148.8555 
 213   0.0000       5.534672       150.6061 
 214   0.0000       5.587629       152.0471 
 215   0.0000       5.635735       153.3561 
 216   0.0000       5.719619       155.6388 
 217   0.0000       5.962513       162.2482 
 218   0.0000       7.301944       198.6960 
 219   0.0000       9.143070       248.7956 
 220   0.0000      29.724040       808.8322 
 221   0.0000      29.848967       812.2317 
 222   0.0000      29.945204       814.8504 
 223   0.0000      29.956599       815.1605 
 224   0.0000      30.020070       816.8876 
 225   0.0000      30.047578       817.6362 
 226   0.0000      30.109967       819.3338 
 227   0.0000      30.271757       823.7364 
 228   0.0000      36.582158       995.4511 
 229   0.0000      36.594073       995.7753 
 230   0.0000      36.632028       996.8082 
 231   0.0000      36.646708       997.2076 
 232   0.0000      36.709185       998.9077 
 233   0.0000      36.798782      1001.3458 
 234   0.0000      36.816221      1001.8203 
 235   0.0000      36.843296      1002.5570 
 236   0.0000      36.863962      1003.1194 
 237   0.0000      36.959034      1005.7064 
 238   0.0000      41.235228      1122.0676 
 239   0.0000      53.673465      1460.5292 

                 SPIN DOWN ORBITALS
  NO   OCC          E(Eh)            E(eV) 
   0   1.0000     -19.061076      -518.6782 
   1   1.0000     -14.440032      -392.9332 
   2   1.0000     -10.259807      -279.1836 
   3   1.0000     -10.240167      -278.6491 
   4   1.0000     -10.236521      -278.5499 
   5   1.0000     -10.235920      -278.5335 
   6   1.0000     -10.218370      -278.0560 
   7   1.0000     -10.204135      -277.6686 
   8   1.0000     -10.190524      -277.2983 
   9   1.0000     -10.173222      -276.8274 
  10   1.0000      -1.041013       -28.3274 
  11   1.0000      -0.920306       -25.0428 
  12   1.0000      -0.844074       -22.9684 
  13   1.0000      -0.785475       -21.3739 
  14   1.0000      -0.761996       -20.7350 
  15   1.0000      -0.723118       -19.6770 
  16   1.0000      -0.670676       -18.2500 
  17   1.0000      -0.616053       -16.7637 
  18   1.0000      -0.596397       -16.2288 
  19   1.0000      -0.544992       -14.8300 
  20   1.0000      -0.533376       -14.5139 
  21   1.0000      -0.508244       -13.8300 
  22   1.0000      -0.461894       -12.5688 
  23   1.0000      -0.457473       -12.4485 
  24   1.0000      -0.441912       -12.0250 
  25   1.0000      -0.436419       -11.8756 
  26   1.0000      -0.416532       -11.3344 
  27   1.0000      -0.405497       -11.0341 
  28   1.0000      -0.397284       -10.8106 
  29   1.0000      -0.367968       -10.0129 
  30   1.0000      -0.347721        -9.4620 
  31   1.0000      -0.336356        -9.1527 
  32   1.0000      -0.327413        -8.9093 
  33   1.0000      -0.283984        -7.7276 
  34   1.0000      -0.202674        -5.5150 
  35   1.0000      -0.193328        -5.2607 
  36   0.0000      -0.101310        -2.7568 
  37   0.0000      -0.019314        -0.5256 
  38   0.0000      -0.009874        -0.2687 
  39   0.0000       0.003984         0.1084 
  40   0.0000       0.017503         0.4763 
  41   0.0000       0.041831         1.1383 
  42   0.0000       0.048145         1.3101 
  43   0.0000       0.061906         1.6845 
  44   0.0000       0.079490         2.1630 
  45   0.0000       0.103347         2.8122 
  46   0.0000       0.109290         2.9739 
  47   0.0000       0.131214         3.5705 
  48   0.0000       0.140774         3.8306 
  49   0.0000       0.149114         4.0576 
  50   0.0000       0.157853         4.2954 
  51   0.0000       0.161858         4.4044 
  52   0.0000       0.178885         4.8677 
  53   0.0000       0.196035         5.3344 
  54   0.0000       0.210898         5.7388 
  55   0.0000       0.218377         5.9423 
  56   0.0000       0.220090         5.9890 
  57   0.0000       0.222050         6.0423 
  58   0.0000       0.237123         6.4524 
  59   0.0000       0.243885         6.6365 
  60   0.0000       0.247827         6.7437 
  61   0.0000       0.251400         6.8409 
  62   0.0000       0.267522         7.2796 
  63   0.0000       0.281881         7.6704 
  64   0.0000       0.287328         7.8186 
  65   0.0000       0.299863         8.1597 
  66   0.0000       0.311369         8.4728 
  67   0.0000       0.323133         8.7929 
  68   0.0000       0.328268         8.9326 
  69   0.0000       0.339298         9.2328 
  70   0.0000       0.351754         9.5717 
  71   0.0000       0.363883         9.9018 
  72   0.0000       0.378423        10.2974 
  73   0.0000       0.381645        10.3851 
  74   0.0000       0.390972        10.6389 
  75   0.0000       0.391832        10.6623 
  76   0.0000       0.421946        11.4817 
  77   0.0000       0.440005        11.9732 
  78   0.0000       0.443040        12.0557 
  79   0.0000       0.456560        12.4236 
  80   0.0000       0.461872        12.5682 
  81   0.0000       0.483811        13.1652 
  82   0.0000       0.492963        13.4142 
  83   0.0000       0.500882        13.6297 
  84   0.0000       0.504094        13.7171 
  85   0.0000       0.532808        14.4984 
  86   0.0000       0.545265        14.8374 
  87   0.0000       0.576812        15.6959 
  88   0.0000       0.585106        15.9215 
  89   0.0000       0.646966        17.6048 
  90   0.0000       0.652033        17.7427 
  91   0.0000       0.661782        18.0080 
  92   0.0000       0.674101        18.3432 
  93   0.0000       0.706623        19.2282 
  94   0.0000       0.752548        20.4779 
  95   0.0000       0.757054        20.6005 
  96   0.0000       0.777128        21.1467 
  97   0.0000       0.803503        21.8644 
  98   0.0000       0.811865        22.0920 
  99   0.0000       0.816564        22.2198 
 100   0.0000       0.825248        22.4562 
 101   0.0000       0.847516        23.0621 
 102   0.0000       0.869597        23.6629 
 103   0.0000       0.885978        24.1087 
 104   0.0000       0.887802        24.1583 
 105   0.0000       0.903195        24.5772 
 106   0.0000       0.913613        24.8607 
 107   0.0000       0.932306        25.3693 
 108   0.0000       0.938031        25.5251 
 109   0.0000       0.951716        25.8975 
 110   0.0000       0.969138        26.3716 
 111   0.0000       0.970778        26.4162 
 112   0.0000       0.989681        26.9306 
 113   0.0000       1.005238        27.3539 
 114   0.0000       1.025187        27.8968 
 115   0.0000       1.029413        28.0118 
 116   0.0000       1.036458        28.2035 
 117   0.0000       1.051687        28.6179 
 118   0.0000       1.082857        29.4660 
 119   0.0000       1.086722        29.5712 
 120   0.0000       1.087964        29.6050 
 121   0.0000       1.121386        30.5145 
 122   0.0000       1.127797        30.6889 
 123   0.0000       1.183026        32.1918 
 124   0.0000       1.184939        32.2438 
 125   0.0000       1.203373        32.7454 
 126   0.0000       1.252591        34.0847 
 127   0.0000       1.259267        34.2664 
 128   0.0000       1.276143        34.7256 
 129   0.0000       1.304572        35.4992 
 130   0.0000       1.328989        36.1636 
 131   0.0000       1.358296        36.9611 
 132   0.0000       1.366892        37.1950 
 133   0.0000       1.380043        37.5529 
 134   0.0000       1.415425        38.5157 
 135   0.0000       1.424967        38.7753 
 136   0.0000       1.447168        39.3795 
 137   0.0000       1.473521        40.0966 
 138   0.0000       1.499688        40.8086 
 139   0.0000       1.509863        41.0855 
 140   0.0000       1.522453        41.4280 
 141   0.0000       1.554743        42.3067 
 142   0.0000       1.560021        42.4503 
 143   0.0000       1.576449        42.8974 
 144   0.0000       1.593611        43.3644 
 145   0.0000       1.597946        43.4823 
 146   0.0000       1.622924        44.1620 
 147   0.0000       1.637266        44.5523 
 148   0.0000       1.658190        45.1216 
 149   0.0000       1.687058        45.9072 
 150   0.0000       1.694228        46.1023 
 151   0.0000       1.704446        46.3803 
 152   0.0000       1.719955        46.8023 
 153   0.0000       1.729195        47.0538 
 154   0.0000       1.751724        47.6668 
 155   0.0000       1.761492        47.9326 
 156   0.0000       1.787018        48.6272 
 157   0.0000       1.831821        49.8464 
 158   0.0000       1.853673        50.4410 
 159   0.0000       1.873331        50.9759 
 160   0.0000       1.888222        51.3811 
 161   0.0000       1.911394        52.0117 
 162   0.0000       1.940500        52.8037 
 163   0.0000       1.945854        52.9494 
 164   0.0000       1.962020        53.3893 
 165   0.0000       1.989412        54.1347 
 166   0.0000       2.024396        55.0866 
 167   0.0000       2.040976        55.5378 
 168   0.0000       2.057642        55.9913 
 169   0.0000       2.098857        57.1128 
 170   0.0000       2.108899        57.3861 
 171   0.0000       2.150739        58.5246 
 172   0.0000       2.167176        58.9718 
 173   0.0000       2.200964        59.8913 
 174   0.0000       2.229659        60.6721 
 175   0.0000       2.270422        61.7813 
 176   0.0000       2.311964        62.9118 
 177   0.0000       2.336276        63.5733 
 178   0.0000       2.359489        64.2050 
 179   0.0000       2.380965        64.7894 
 180   0.0000       2.398886        65.2770 
 181   0.0000       2.416287        65.7505 
 182   0.0000       2.425595        66.0038 
 183   0.0000       2.465721        67.0957 
 184   0.0000       2.471681        67.2579 
 185   0.0000       2.490728        67.7762 
 186   0.0000       2.508118        68.2494 
 187   0.0000       2.529266        68.8248 
 188   0.0000       2.533851        68.9496 
 189   0.0000       2.648360        72.0655 
 190   0.0000       2.698141        73.4202 
 191   0.0000       2.721742        74.0624 
 192   0.0000       2.735531        74.4376 
 193   0.0000       2.763079        75.1872 
 194   0.0000       2.810118        76.4672 
 195   0.0000       2.925087        79.5957 
 196   0.0000       3.035020        82.5871 
 197   0.0000       3.228359        87.8481 
 198   0.0000       3.327176        90.5371 
 199   0.0000       3.523868        95.8893 
 200   0.0000       4.961444       135.0078 
 201   0.0000       4.987919       135.7282 
 202   0.0000       5.011042       136.3574 
 203   0.0000       5.037120       137.0670 
 204   0.0000       5.081239       138.2675 
 205   0.0000       5.124053       139.4326 
 206   0.0000       5.213644       141.8705 
 207   0.0000       5.220929       142.0687 
 208   0.0000       5.266955       143.3211 
 209   0.0000       5.305158       144.3607 
 210   0.0000       5.386897       146.5849 
 211   0.0000       5.443099       148.1142 
 212   0.0000       5.474642       148.9726 
 213   0.0000       5.544120       150.8632 
 214   0.0000       5.591861       152.1623 
 215   0.0000       5.635553       153.3512 
 216   0.0000       5.721116       155.6795 
 217   0.0000       5.964690       162.3075 
 218   0.0000       7.305792       198.8007 
 219   0.0000       9.153426       249.0774 
 220   0.0000      29.727825       808.9352 
 221   0.0000      29.849072       812.2345 
 222   0.0000      29.948087       814.9289 
 223   0.0000      29.963261       815.3418 
 224   0.0000      30.022281       816.9478 
 225   0.0000      30.046347       817.6027 
 226   0.0000      30.111329       819.3709 
 227   0.0000      30.272751       823.7634 
 228   0.0000      36.583583       995.4899 
 229   0.0000      36.594558       995.7886 
 230   0.0000      36.633218       996.8405 
 231   0.0000      36.646760       997.2090 
 232   0.0000      36.707816       998.8705 
 233   0.0000      36.797538      1001.3119 
 234   0.0000      36.816773      1001.8353 
 235   0.0000      36.841993      1002.5216 
 236   0.0000      36.864268      1003.1277 
 237   0.0000      36.960028      1005.7335 
 238   0.0000      41.237438      1122.1277 
 239   0.0000      53.678953      1460.6786 

                    ********************************
                    * MULLIKEN POPULATION ANALYSIS *
                    ********************************

--------------------------------------------
MULLIKEN ATOMIC CHARGES AND SPIN POPULATIONS
--------------------------------------------
   0 N :    0.433289    0.063265
   1 C :   -0.449757   -0.005248
   2 C :   -0.283009    0.176283
   3 C :    0.079544   -0.005977
   4 O :   -0.460068    0.179695
   5 C :    0.221083   -0.149571
   6 C :   -0.501281    0.750012
   7 C :    0.358961    0.141360
   8 C :   -0.578059   -0.009352
   9 C :   -0.415601   -0.121410
  10 H :    0.191317    0.005327
  11 H :    0.164379    0.000001
  12 H :    0.171623    0.002475
  13 H :    0.146183   -0.008371
  14 H :    0.127552   -0.015042
  15 H :    0.185223   -0.017397
  16 H :    0.181246    0.003901
  17 H :    0.143591    0.000805
  18 H :    0.156996    0.003036
  19 H :    0.126789    0.006209
Sum of atomic charges         :   -0.0000000
Sum of atomic spin populations:    1.0000000

-----------------------------------------------------
MULLIKEN REDUCED ORBITAL CHARGES AND SPIN POPULATIONS
-----------------------------------------------------
CHARGE
  0 N s       :     3.198108  s :     3.198108
      pz      :     1.373917  p :     3.309518
      px      :     0.970135
      py      :     0.965466
      dz2     :     0.002872  d :     0.059085
      dxz     :     0.005985
      dyz     :     0.014160
      dx2y2   :     0.018332
      dxy     :     0.017736
  1 C s       :     3.214428  s :     3.214428
      pz      :     1.163739  p :     3.147542
      px      :     0.828538
      py      :     1.155265
      dz2     :     0.016625  d :     0.087787
      dxz     :     0.018436
      dyz     :     0.013572
      dx2y2   :     0.023474
      dxy     :     0.015679
  2 C s       :     3.185083  s :     3.185083
      pz      :     1.022906  p :     3.003782
      px      :     1.031663
      py      :     0.949213
      dz2     :     0.005827  d :     0.094144
      dxz     :     0.011757
      dyz     :     0.012745
      dx2y2   :     0.028899
      dxy     :     0.034917
  3 C s       :     3.044493  s :     3.044493
      pz      :     0.899571  p :     2.722949
      px      :     0.949853
      py      :     0.873525
      dz2     :     0.006179  d :     0.153014
      dxz     :     0.014778
      dyz     :     0.027221
      dx2y2   :     0.059884
      dxy     :     0.044951
  4 O s       :     3.987163  s :     3.987163
      pz      :     1.468206  p :     4.460477
      px      :     1.681059
      py      :     1.311212
      dz2     :     0.001726  d :     0.012428
      dxz     :     0.000754
      dyz     :     0.002398
      dx2y2   :     0.003161
      dxy     :     0.004389
  5 C s       :     3.056176  s :     3.056176
      pz      :     0.953158  p :     2.640118
      px      :     0.805720
      py      :     0.881240
      dz2     :     0.004574  d :     0.082623
      dxz     :     0.012802
      dyz     :     0.009750
      dx2y2   :     0.023749
      dxy     :     0.031748
  6 C s       :     3.396885  s :     3.396885
      pz      :     0.984536  p :     3.048569
      px      :     0.978484
      py      :     1.085548
      dz2     :     0.002709  d :     0.055828
      dxz     :     0.007366
      dyz     :     0.016606
      dx2y2   :     0.018081
      dxy     :     0.011066
  7 C s       :     2.989105  s :     2.989105
      pz      :     0.928969  p :     2.563486
      px      :     0.848385
      py      :     0.786132
      dz2     :     0.004556  d :     0.088448
      dxz     :     0.014395
      dyz     :     0.012038
      dx2y2   :     0.031414
      dxy     :     0.026045
  8 C s       :     3.237482  s :     3.237482
      pz      :     1.135203  p :     3.271250
      px      :     1.111062
      py      :     1.024985
      dz2     :     0.014619  d :     0.069327
      dxz     :     0.013230
      dyz     :     0.012535
      dx2y2   :     0.013051
      dxy     :     0.015892
  9 C s       :     3.199772  s :     3.199772
      pz      :     1.100303  p :     3.117410
      px      :     1.010551
      py      :     1.006556
      dz2     :     0.005823  d :     0.098420
      dxz     :     0.013307
      dyz     :     0.011799
      dx2y2   :     0.028799
      dxy     :     0.038693
 10 H s       :     0.790728  s :     0.790728
      pz      :     0.009746  p :     0.017955
      px      :     0.003677
      py      :     0.004532
 11 H s       :     0.817201  s :     0.817201
      pz      :     0.006085  p :     0.018420
      px      :     0.003862
      py      :     0.008474
 12 H s       :     0.809961  s :     0.809961
      pz      :     0.006001  p :     0.018417
      px      :     0.003846
      py      :     0.008570
 13 H s       :     0.831638  s :     0.831638
      pz      :     0.006111  p :     0.022179
      px      :     0.005684
      py      :     0.010384
 14 H s       :     0.850466  s :     0.850466
      pz      :     0.006811  p :     0.021982
      px      :     0.006603
      py      :     0.008568
 15 H s       :     0.794333  s :     0.794333
      pz      :     0.005819  p :     0.020444
      px      :     0.005283
      py      :     0.009342
 16 H s       :     0.799159  s :     0.799159
      pz      :     0.009206  p :     0.019595
      px      :     0.004909
      py      :     0.005481
 17 H s       :     0.837019  s :     0.837019
      pz      :     0.005664  p :     0.019390
      px      :     0.005980
      py      :     0.007746
 18 H s       :     0.822064  s :     0.822064
      pz      :     0.005739  p :     0.020940
      px      :     0.009269
      py      :     0.005932
 19 H s       :     0.850359  s :     0.850359
      pz      :     0.007183  p :     0.022852
      px      :     0.005989
      py      :     0.009679

SPIN
  0 N s       :     0.002369  s :     0.002369
      pz      :     0.057609  p :     0.060585
      px      :     0.001508
      py      :     0.001468
      dz2     :    -0.000158  d :     0.000312
      dxz     :     0.000083
      dyz     :     0.000423
      dx2y2   :    -0.000015
      dxy     :    -0.000021
  1 C s       :    -0.001551  s :    -0.001551
      pz      :    -0.001546  p :    -0.005021
      px      :    -0.003034
      py      :    -0.000440
      dz2     :     0.000068  d :     0.001324
      dxz     :     0.001207
      dyz     :     0.000012
      dx2y2   :     0.000055
      dxy     :    -0.000017
  2 C s       :     0.009781  s :     0.009781
      pz      :     0.157643  p :     0.166328
      px      :     0.003769
      py      :     0.004916
      dz2     :    -0.000448  d :     0.000173
      dxz     :     0.000921
      dyz     :    -0.000403
      dx2y2   :     0.000160
      dxy     :    -0.000056
  3 C s       :    -0.003111  s :    -0.003111
      pz      :    -0.001827  p :    -0.007614
      px      :    -0.004955
      py      :    -0.000831
      dz2     :    -0.000073  d :     0.004748
      dxz     :     0.004594
      dyz     :     0.000465
      dx2y2   :    -0.000005
      dxy     :    -0.000233
  4 O s       :     0.000079  s :     0.000079
      pz      :     0.172807  p :     0.179780
      px      :     0.002549
      py      :     0.004424
      dz2     :     0.000007  d :    -0.000164
      dxz     :    -0.000053
      dyz     :    -0.000113
      dx2y2   :    -0.000004
      dxy     :    -0.000001
  5 C s       :    -0.011950  s :    -0.011950
      pz      :    -0.135512  p :    -0.145804
      px      :    -0.008235
      py      :    -0.002057
      dz2     :     0.000374  d :     0.008183
      dxz     :     0.007793
      dyz     :    -0.000160
      dx2y2   :     0.000034
      dxy     :     0.000143
  6 C s       :     0.100938  s :     0.100938
      pz      :     0.545975  p :     0.654152
      px      :     0.084702
      py      :     0.023475
      dz2     :    -0.000976  d :    -0.005077
      dxz     :    -0.002087
      dyz     :    -0.001697
      dx2y2   :    -0.000760
      dxy     :     0.000442
  7 C s       :     0.007141  s :     0.007141
      pz      :     0.126665  p :     0.137558
      px      :     0.003515
      py      :     0.007378
      dz2     :    -0.000432  d :    -0.003338
      dxz     :    -0.002182
      dyz     :    -0.000612
      dx2y2   :    -0.000092
      dxy     :    -0.000021
  8 C s       :    -0.002174  s :    -0.002174
      pz      :    -0.002765  p :    -0.008794
      px      :    -0.002358
      py      :    -0.003671
      dz2     :     0.000141  d :     0.001616
      dxz     :     0.000445
      dyz     :     0.000908
      dx2y2   :     0.000064
      dxy     :     0.000059
  9 C s       :    -0.009173  s :    -0.009173
      pz      :    -0.103716  p :    -0.116118
      px      :    -0.006448
      py      :    -0.005953
      dz2     :     0.000296  d :     0.003881
      dxz     :     0.003165
      dyz     :     0.000393
      dx2y2   :    -0.000006
      dxy     :     0.000034
 10 H s       :     0.005343  s :     0.005343
      pz      :    -0.000007  p :    -0.000016
      px      :    -0.000016
      py      :     0.000006
 11 H s       :     0.000009  s :     0.000009
      pz      :    -0.000005  p :    -0.000009
      px      :    -0.000006
      py      :     0.000002
 12 H s       :     0.002498  s :     0.002498
      pz      :     0.000002  p :    -0.000023
      px      :    -0.000020
      py      :    -0.000006
 13 H s       :    -0.009372  s :    -0.009372
      pz      :     0.001078  p :     0.001001
      px      :    -0.000031
      py      :    -0.000046
 14 H s       :    -0.017970  s :    -0.017970
      pz      :     0.002107  p :     0.002928
      px      :     0.000656
      py      :     0.000165
 15 H s       :    -0.020142  s :    -0.020142
      pz      :     0.001884  p :     0.002745
      px      :     0.000629
      py      :     0.000232
 16 H s       :     0.003919  s :     0.003919
      pz      :    -0.000004  p :    -0.000018
      px      :     0.000001
      py      :    -0.000014
 17 H s       :     0.000846  s :     0.000846
      pz      :    -0.000008  p :    -0.000041
      px      :    -0.000012
      py      :    -0.000021
 18 H s       :     0.003123  s :     0.003123
      pz      :     0.000003  p :    -0.000086
      px      :    -0.000045
      py      :    -0.000045
 19 H s       :     0.007055  s :     0.007055
      pz      :    -0.000880  p :    -0.000845
      px      :     0.000011
      py      :     0.000023


                     *******************************
                     * LOEWDIN POPULATION ANALYSIS *
                     *******************************

-------------------------------------------
LOEWDIN ATOMIC CHARGES AND SPIN POPULATIONS
-------------------------------------------
   0 N :    0.147252    0.062677
   1 C :    0.046918   -0.000010
   2 C :   -0.016168    0.139593
   3 C :   -0.077649    0.011123
   4 O :   -0.306113    0.171952
   5 C :   -0.072841   -0.088424
   6 C :   -0.026106    0.654611
   7 C :   -0.066382    0.102780
   8 C :   -0.022389   -0.001027
   9 C :   -0.075282   -0.082028
  10 H :    0.045631    0.003408
  11 H :    0.044310    0.000114
  12 H :    0.047207    0.001526
  13 H :    0.066530    0.001099
  14 H :    0.025990    0.009781
  15 H :    0.051220    0.007749
  16 H :    0.051121    0.003279
  17 H :    0.038581    0.000774
  18 H :    0.042413    0.002154
  19 H :    0.055758   -0.001132

----------------------------------------------------
LOEWDIN REDUCED ORBITAL CHARGES AND SPIN POPULATIONS
----------------------------------------------------
CHARGE
  0 N s       :     3.025974  s :     3.025974
      pz      :     1.304515  p :     3.679846
      px      :     1.159756
      py      :     1.215575
      dz2     :     0.006553  d :     0.146928
      dxz     :     0.012717
      dyz     :     0.033692
      dx2y2   :     0.050501
      dxy     :     0.043466
  1 C s       :     2.853837  s :     2.853837
      pz      :     1.054249  p :     2.948437
      px      :     0.841954
      py      :     1.052235
      dz2     :     0.025448  d :     0.150808
      dxz     :     0.037087
      dyz     :     0.015319
      dx2y2   :     0.048648
      dxy     :     0.024306
  2 C s       :     2.839231  s :     2.839231
      pz      :     0.974710  p :     2.939119
      px      :     1.031185
      py      :     0.933225
      dz2     :     0.017036  d :     0.237818
      dxz     :     0.031809
      dyz     :     0.030559
      dx2y2   :     0.070398
      dxy     :     0.088017
  3 C s       :     2.823214  s :     2.823214
      pz      :     0.868468  p :     2.870417
      px      :     1.025272
[...]
      pz      :    -0.110679  p :    -0.126875
      px      :    -0.012133
      py      :    -0.004063
      dz2     :     0.000335  d :     0.008404
      dxz     :     0.007968
      dyz     :    -0.000049
      dx2y2   :     0.000064
      dxy     :     0.000086
  6 C s       :     0.026876  s :     0.026876
      pz      :     0.355719  p :     0.381911
      px      :     0.009000
      py      :     0.017192
      dz2     :    -0.001316  d :    -0.001978
      dxz     :    -0.000838
      dyz     :    -0.000007
      dx2y2   :    -0.000027
      dxy     :     0.000211
  7 C s       :     0.007723  s :     0.007723
      pz      :     0.157514  p :     0.172691
      px      :     0.005619
      py      :     0.009558
      dz2     :    -0.000568  d :    -0.002832
      dxz     :    -0.001677
      dyz     :    -0.000398
      dx2y2   :    -0.000109
      dxy     :    -0.000080
  8 C s       :    -0.003024  s :    -0.003024
      pz      :    -0.004530  p :    -0.012451
      px      :    -0.003171
      py      :    -0.004750
      dz2     :     0.000024  d :     0.002351
      dxz     :     0.001273
      dyz     :     0.000950
      dx2y2   :     0.000033
      dxy     :     0.000070
  9 C s       :    -0.009419  s :    -0.009419
      pz      :    -0.101697  p :    -0.118127
      px      :    -0.008268
      py      :    -0.008162
      dz2     :     0.000299  d :     0.005794
      dxz     :     0.004587
      dyz     :     0.000821
      dx2y2   :     0.000018
      dxy     :     0.000069
 10 H s       :     0.010991  s :     0.010991
      pz      :    -0.000018  p :    -0.000025
      px      :    -0.000022
      py      :     0.000015
 11 H s       :     0.000785  s :     0.000785
      pz      :    -0.000006  p :    -0.000028
      px      :    -0.000017
      py      :    -0.000005
 12 H s       :     0.004276  s :     0.004276
      pz      :     0.000003  p :    -0.000039
      px      :    -0.000028
      py      :    -0.000014
 13 H s       :    -0.020266  s :    -0.020266
      pz      :     0.002331  p :     0.002187
      px      :    -0.000070
      py      :    -0.000074
 14 H s       :    -0.018036  s :    -0.018036
      pz      :     0.002302  p :     0.002261
      px      :    -0.000017
      py      :    -0.000024
 15 H s       :    -0.018767  s :    -0.018767
      pz      :     0.002135  p :     0.002048
      px      :    -0.000035
      py      :    -0.000052
 16 H s       :     0.006878  s :     0.006878
      pz      :    -0.000007  p :    -0.000042
      px      :    -0.000018
      py      :    -0.000017
 17 H s       :     0.000361  s :     0.000361
      pz      :    -0.000017  p :    -0.000053
      px      :    -0.000019
      py      :    -0.000017
 18 H s       :     0.006604  s :     0.006604
      pz      :    -0.000007  p :    -0.000040
      px      :    -0.000016
      py      :    -0.000017
 19 H s       :     0.006402  s :     0.006402
      pz      :    -0.000809  p :    -0.000786
      px      :     0.000005
      py      :     0.000018


                     *******************************
                     * LOEWDIN POPULATION ANALYSIS *
                     *******************************

-------------------------------------------
LOEWDIN ATOMIC CHARGES AND SPIN POPULATIONS
-------------------------------------------
   0 N :    0.090596    0.136559
   1 C :    0.031315    0.000581
   2 C :   -0.028120    0.301812
   3 C :   -0.092028    0.032408
   4 O :   -0.185533    0.187385
   5 C :   -0.086240   -0.076366
   6 C :   -0.015375    0.332650
   7 C :   -0.073746    0.135508
   8 C :   -0.036278   -0.001042
   9 C :   -0.063483   -0.076229
  10 H :    0.042233    0.007097
  11 H :    0.041204    0.000696
  12 H :    0.044195    0.002659
  13 H :    0.058010    0.002468
  14 H :    0.036395    0.002456
  15 H :    0.052446    0.002131
  16 H :    0.046201    0.005192
  17 H :    0.039069    0.000015
  18 H :    0.046110    0.005081
  19 H :    0.053028   -0.001062

----------------------------------------------------
LOEWDIN REDUCED ORBITAL CHARGES AND SPIN POPULATIONS
----------------------------------------------------
CHARGE
  0 N s       :     3.058448  s :     3.058448
      pz      :     1.375859  p :     3.725842
      px      :     1.152872
      py      :     1.197111
      dz2     :     0.006110  d :     0.125114
      dxz     :     0.012310
      dyz     :     0.024954
      dx2y2   :     0.042703
      dxy     :     0.039038
  1 C s       :     2.856848  s :     2.856848
      pz      :     1.052413  p :     2.956297
      px      :     0.851526
      py      :     1.052357
      dz2     :     0.025740  d :     0.155539
      dxz     :     0.041934
      dyz     :     0.015103
      dx2y2   :     0.047595
      dxy     :     0.025168
  2 C s       :     2.866225  s :     2.866225
      pz      :     1.002849  p :     2.947765
      px      :     1.018370
      py      :     0.926545
      dz2     :     0.016720  d :     0.214131
      dxz     :     0.026941
      dyz     :     0.029602
      dx2y2   :     0.063859
      dxy     :     0.077010
  3 C s       :     2.835486  s :     2.835486
      pz      :     0.845531  p :     2.838884
      px      :     1.011640
      py      :     0.981713
      dz2     :     0.023026  d :     0.417659
      dxz     :     0.040415
      dyz     :     0.063717
      dx2y2   :     0.163230
      dxy     :     0.127270
  4 O s       :     3.591085  s :     3.591085
      pz      :     1.392302  p :     4.563681
      px      :     1.685123
      py      :     1.486255
      dz2     :     0.004391  d :     0.030766
      dxz     :     0.001418
      dyz     :     0.005058
      dx2y2   :     0.009085
      dxy     :     0.010815
  5 C s       :     2.853050  s :     2.853050
      pz      :     0.943259  p :     3.000939
      px      :     1.060224
      py      :     0.997456
      dz2     :     0.015248  d :     0.232251
      dxz     :     0.037990
      dyz     :     0.019211
      dx2y2   :     0.069141
      dxy     :     0.090660
  6 C s       :     2.903602  s :     2.903602
      pz      :     0.942175  p :     2.997557
      px      :     1.040270
      py      :     1.015113
      dz2     :     0.006486  d :     0.114215
      dxz     :     0.019394
      dyz     :     0.000253
      dx2y2   :     0.034834
      dxy     :     0.053248
  7 C s       :     2.850578  s :     2.850578
      pz      :     0.930654  p :     2.990143
      px      :     1.044665
      py      :     1.014825
      dz2     :     0.013662  d :     0.233024
      dxz     :     0.039819
      dyz     :     0.025664
      dx2y2   :     0.079440
      dxy     :     0.074440
  8 C s       :     2.855652  s :     2.855652
      pz      :     1.038442  p :     3.060303
      px      :     1.025110
      py      :     0.996751
      dz2     :     0.019448  d :     0.120323
      dxz     :     0.030187
      dyz     :     0.012870
      dx2y2   :     0.021881
      dxy     :     0.035937
  9 C s       :     2.842096  s :     2.842096
      pz      :     1.045518  p :     2.988228
      px      :     1.028540
      py      :     0.914170
      dz2     :     0.015114  d :     0.233159
      dxz     :     0.038338
      dyz     :     0.026045
      dx2y2   :     0.059591
      dxy     :     0.094071
 10 H s       :     0.877670  s :     0.877670
      pz      :     0.046505  p :     0.080097
      px      :     0.016410
      py      :     0.017182
 11 H s       :     0.879102  s :     0.879102
      pz      :     0.026447  p :     0.079694
      px      :     0.015919
      py      :     0.037328
 12 H s       :     0.875916  s :     0.875916
      pz      :     0.023241  p :     0.079890
      px      :     0.016620
      py      :     0.040028
 13 H s       :     0.854055  s :     0.854055
      pz      :     0.022516  p :     0.087934
      px      :     0.024468
      py      :     0.040951
 14 H s       :     0.876326  s :     0.876326
      pz      :     0.020706  p :     0.087279
      px      :     0.025966
      py      :     0.040607
 15 H s       :     0.857985  s :     0.857985
      pz      :     0.019642  p :     0.089569
      px      :     0.020985
      py      :     0.048942
 16 H s       :     0.873270  s :     0.873270
      pz      :     0.036253  p :     0.080528
      px      :     0.028432
      py      :     0.015844
 17 H s       :     0.881295  s :     0.881295
      pz      :     0.017185  p :     0.079636
      px      :     0.029240
      py      :     0.033211
 18 H s       :     0.873376  s :     0.873376
      pz      :     0.038045  p :     0.080514
      px      :     0.026533
      py      :     0.015936
 19 H s       :     0.861318  s :     0.861318
      pz      :     0.022878  p :     0.085654
      px      :     0.023978
      py      :     0.038797

SPIN
  0 N s       :     0.004339  s :     0.004339
      pz      :     0.124070  p :     0.128542
      px      :     0.002860
      py      :     0.001611
      dz2     :    -0.000219  d :     0.003678
      dxz     :     0.000688
      dyz     :     0.003386
      dx2y2   :    -0.000109
      dxy     :    -0.000069
  1 C s       :    -0.000924  s :    -0.000924
      pz      :    -0.001633  p :    -0.006152
      px      :    -0.004127
      py      :    -0.000391
      dz2     :     0.000611  d :     0.007657
      dxz     :     0.006603
      dyz     :    -0.000054
      dx2y2   :     0.000482
      dxy     :     0.000015
  2 C s       :     0.007607  s :     0.007607
      pz      :     0.281285  p :     0.288023
      px      :     0.003775
      py      :     0.002962
      dz2     :    -0.000667  d :     0.006183
      dxz     :     0.003793
      dyz     :     0.003400
      dx2y2   :    -0.000012
      dxy     :    -0.000331
  3 C s       :    -0.001347  s :    -0.001347
      pz      :     0.015287  p :     0.009979
      px      :    -0.004315
      py      :    -0.000992
      dz2     :     0.000080  d :     0.023775
      dxz     :     0.018124
      dyz     :     0.005343
      dx2y2   :     0.000412
      dxy     :    -0.000184
  4 O s       :     0.002073  s :     0.002073
      pz      :     0.181839  p :     0.185526
      px      :     0.001436
      py      :     0.002250
      dz2     :     0.000029  d :    -0.000214
      dxz     :     0.000031
      dyz     :    -0.000153
      dx2y2   :    -0.000060
      dxy     :    -0.000061
  5 C s       :    -0.004857  s :    -0.004857
      pz      :    -0.085075  p :    -0.094930
      px      :    -0.005405
      py      :    -0.004449
      dz2     :     0.000486  d :     0.023421
      dxz     :     0.021011
      dyz     :     0.000471
      dx2y2   :     0.000738
      dxy     :     0.000716
  6 C s       :     0.008857  s :     0.008857
      pz      :     0.316850  p :     0.328910
      px      :     0.006224
      py      :     0.005835
      dz2     :    -0.001046  d :    -0.005117
      dxz     :    -0.002857
      dyz     :    -0.000013
      dx2y2   :    -0.000616
      dxy     :    -0.000585
  7 C s       :     0.004911  s :     0.004911
      pz      :     0.131339  p :     0.139385
      px      :     0.004092
      py      :     0.003955
      dz2     :    -0.000689  d :    -0.008788
      dxz     :    -0.005171
      dyz     :    -0.001620
      dx2y2   :    -0.000677
      dxy     :    -0.000631
  8 C s       :    -0.000923  s :    -0.000923
      pz      :    -0.001707  p :    -0.005765
      px      :    -0.001383
      py      :    -0.002676
      dz2     :     0.000087  d :     0.005647
      dxz     :     0.002570
      dyz     :     0.002586
      dx2y2   :     0.000169
      dxy     :     0.000235
  9 C s       :    -0.003750  s :    -0.003750
      pz      :    -0.082003  p :    -0.089628
      px      :    -0.003761
      py      :    -0.003864
      dz2     :     0.000412  d :     0.017149
      dxz     :     0.012772
      dyz     :     0.002800
      dx2y2   :     0.000457
      dxy     :     0.000709
 10 H s       :     0.007103  s :     0.007103
      pz      :    -0.000091  p :    -0.000006
      px      :     0.000074
      py      :     0.000011
 11 H s       :     0.000910  s :     0.000910
      pz      :    -0.000093  p :    -0.000214
      px      :    -0.000068
      py      :    -0.000052
 12 H s       :     0.002754  s :     0.002754
      pz      :     0.000055  p :    -0.000095
      px      :    -0.000107
      py      :    -0.000043
 13 H s       :    -0.007688  s :    -0.007688
      pz      :     0.008850  p :     0.010156
      px      :     0.000449
      py      :     0.000856
 14 H s       :    -0.007861  s :    -0.007861
      pz      :     0.008874  p :     0.010318
      px      :     0.000468
      py      :     0.000975
 15 H s       :    -0.008106  s :    -0.008106
      pz      :     0.008822  p :     0.010237
      px      :     0.000346
      py      :     0.001069
 16 H s       :     0.005378  s :     0.005378
      pz      :    -0.000063  p :    -0.000185
      px      :    -0.000074
      py      :    -0.000048
 17 H s       :     0.000199  s :     0.000199
      pz      :    -0.000056  p :    -0.000184
      px      :    -0.000056
      py      :    -0.000073
 18 H s       :     0.005278  s :     0.005278
      pz      :    -0.000066  p :    -0.000197
      px      :    -0.000078
      py      :    -0.000053
 19 H s       :     0.002293  s :     0.002293
      pz      :    -0.002845  p :    -0.003355
      px      :    -0.000209
      py      :    -0.000301


                      *****************************
                      * MAYER POPULATION ANALYSIS *
                      *****************************

  NA   - Mulliken gross atomic population
  ZA   - Total nuclear charge
  QA   - Mulliken gross atomic charge
  VA   - Mayer's total valence
  BVA  - Mayer's bonded valence
  FA   - Mayer's free valence

  ATOM       NA         ZA         QA         VA         BVA        FA
  0 N      6.6762     7.0000     0.3238     3.4526     3.4338     0.0188
  1 C      6.4445     6.0000    -0.4445     3.9113     3.9113     0.0001
  2 C      6.3034     6.0000    -0.3034     3.9902     3.8759     0.1143
  3 C      5.9088     6.0000     0.0912     4.1182     4.1160     0.0022
  4 O      8.3528     8.0000    -0.3528     2.0558     2.0185     0.0372
  5 C      5.7092     6.0000     0.2908     3.7934     3.7814     0.0121
  6 C      6.5471     6.0000    -0.5471     3.8935     3.7654     0.1281
  7 C      5.6519     6.0000     0.3481     3.8132     3.7881     0.0251
  8 C      6.6073     6.0000    -0.6073     3.8800     3.8799     0.0001
  9 C      6.3786     6.0000    -0.3786     4.1595     4.1487     0.0108
 10 H      0.8161     1.0000     0.1839     0.9486     0.9485     0.0001
 11 H      0.8391     1.0000     0.1609     0.9651     0.9650     0.0000
 12 H      0.8346     1.0000     0.1654     0.9661     0.9661     0.0000
 13 H      0.8641     1.0000     0.1359     0.9664     0.9659     0.0004
 14 H      0.8530     1.0000     0.1470     0.9726     0.9723     0.0003
 15 H      0.8163     1.0000     0.1837     0.9654     0.9651     0.0003
 16 H      0.8289     1.0000     0.1711     0.9617     0.9616     0.0000
 17 H      0.8562     1.0000     0.1438     0.9743     0.9743     0.0000
 18 H      0.8293     1.0000     0.1707     0.9616     0.9616     0.0000
 19 H      0.8825     1.0000     0.1175     0.9717     0.9716     0.0000

  Mayer bond orders larger than 0.100000
B(  0-N ,  1-C ) :   0.9495 B(  0-N ,  2-C ) :   1.3239 B(  0-N ,  9-C ) :   1.1913 
B(  1-C , 10-H ) :   0.9453 B(  1-C , 11-H ) :   0.9612 B(  1-C , 12-H ) :   0.9607 
B(  2-C ,  3-C ) :   1.2108 B(  2-C ,  4-O ) :   0.1074 B(  2-C ,  9-C ) :   0.1013 
B(  2-C , 13-H ) :   0.9641 B(  3-C ,  4-O ) :   1.7573 B(  3-C ,  5-C ) :   0.9917 
B(  5-C ,  6-C ) :   1.4442 B(  5-C ,  7-C ) :   1.2587 B(  5-C ,  9-C ) :   0.1265 
B(  6-C , 14-H ) :   0.9590 B(  6-C , 15-H ) :   0.9573 B(  7-C ,  8-C ) :   0.8664 
B(  7-C ,  9-C ) :   1.5707 B(  8-C , 16-H ) :   0.9580 B(  8-C , 17-H ) :   0.9866 
B(  8-C , 18-H ) :   0.9582 B(  9-C , 19-H ) :   0.9563 

-------
TIMINGS
-------

Total SCF time: 0 days 0 hours 0 min 21 sec 

Total time                  ....      21.146 sec
Sum of individual times     ....      19.507 sec  ( 92.2%)

Fock matrix formation       ....      17.076 sec  ( 80.8%)
  Split-RI-J                ....       1.792 sec  ( 10.5% of F)
  Chain of spheres X        ....       7.919 sec  ( 46.4% of F)
  XC integration            ....       4.837 sec  ( 28.3% of F)
    Basis function eval.    ....       0.308 sec  (  6.4% of XC)
    Density eval.           ....       0.415 sec  (  8.6% of XC)
    XC-Functional eval.     ....       0.104 sec  (  2.1% of XC)
    XC-Potential eval.      ....       0.297 sec  (  6.2% of XC)
Diagonalization             ....       0.385 sec  (  1.8%)
Density matrix formation    ....       0.051 sec  (  0.2%)
Population analysis         ....       0.198 sec  (  0.9%)
Initial guess               ....       0.044 sec  (  0.2%)
Orbital Transformation      ....       0.000 sec  (  0.0%)
Orbital Orthonormalization  ....       0.029 sec  (  0.1%)
DIIS solution               ....       0.342 sec  (  1.6%)
Grid generation             ....       1.410 sec  (  6.7%)

Maximum memory used throughout the entire SCF-calculation: 63.6 MB

-------------------------   --------------------
FINAL SINGLE POINT ENERGY      -440.606719118731
-------------------------   --------------------

                                *** OPTIMIZATION RUN DONE ***

                            ***************************************
                            *     ORCA property calculations      *
                            ***************************************

                                    ---------------------
                                    Active property flags
                                    ---------------------
   (+) Dipole Moment


------------------------------------------------------------------------------
                       ORCA ELECTRIC PROPERTIES CALCULATION
------------------------------------------------------------------------------

Dipole Moment Calculation                       ... on
Quadrupole Moment Calculation                   ... off
Polarizability Calculation                      ... off
GBWName                                         ... opt_EPRII.gbw
Electron density                                ... opt_EPRII.scfp
The origin for moment calculation is the CENTER OF MASS  = (-0.067027, -0.018849 -0.101819)

-------------
DIPOLE MOMENT
-------------
                                X             Y             Z
Electronic contribution:      1.30328       6.41572       0.04121
Nuclear contribution   :     -3.06496      -8.14231       0.00795
                        -----------------------------------------
Total Dipole Moment    :     -1.76168      -1.72658       0.04916
                        -----------------------------------------
Magnitude (a.u.)       :      2.46719
Magnitude (Debye)      :      6.27109



--------------------
Rotational spectrum 
--------------------
 
Rotational constants in cm-1:     0.058678     0.044313     0.025493 
Rotational constants in MHz :  1759.113780  1328.470178   764.264948 

 Dipole components along the rotational axes: 
x,y,z [a.u.] :    -1.683355     1.803654    -0.012717 
x,y,z [Debye]:    -4.278749     4.584523    -0.032324 

 

Timings for individual modules:

Sum of individual times         ...      615.043 sec (=  10.251 min)
GTO integral calculation        ...       37.143 sec (=   0.619 min)   6.0 %
SCF iterations                  ...      482.492 sec (=   8.042 min)  78.4 %
SCF Gradient evaluation         ...       93.532 sec (=   1.559 min)  15.2 %
Geometry relaxation             ...        1.876 sec (=   0.031 min)   0.3 %
                             ****ORCA TERMINATED NORMALLY****
TOTAL RUN TIME: 0 days 0 hours 11 minutes 4 seconds 108 msec
