
                                 *****************
                                 * O   R   C   A *
                                 *****************

                                            #,                                       
                                            ###                                      
                                            ####                                     
                                            #####                                    
                                            ######                                   
                                           ########,                                 
                                     ,,################,,,,,                         
                               ,,#################################,,                 
                          ,,##########################################,,             
                       ,#########################################, ''#####,          
                    ,#############################################,,   '####,        
                  ,##################################################,,,,####,       
                ,###########''''           ''''###############################       
              ,#####''   ,,,,##########,,,,          '''####'''          '####       
            ,##' ,,,,###########################,,,                        '##       
           ' ,,###''''                  '''############,,,                           
         ,,##''                                '''############,,,,        ,,,,,,###''
      ,#''                                            '''#######################'''  
     '                                                          ''''####''''         
             ,#######,   #######,   ,#######,      ##                                
            ,#'     '#,  ##    ##  ,#'     '#,    #''#        ######   ,####,        
            ##       ##  ##   ,#'  ##            #'  '#       #        #'  '#        
            ##       ##  #######   ##           ,######,      #####,   #    #        
            '#,     ,#'  ##    ##  '#,     ,#' ,#      #,         ##   #,  ,#        
             '#######'   ##     ##  '#######'  #'      '#     #####' # '####'        



                  #######################################################
                  #                        -***-                        #
                  #          Department of theory and spectroscopy      #
                  #    Directorship and core code : Frank Neese         #
                  #        Max Planck Institute fuer Kohlenforschung    #
                  #                Kaiser Wilhelm Platz 1               #
                  #                 D-45470 Muelheim/Ruhr               #
                  #                      Germany                        #
                  #                                                     #
                  #                  All rights reserved                #
                  #                        -***-                        #
                  #######################################################


                         Program Version 5.0.4 -  RELEASE  -


 With contributions from (in alphabetic order):
   Daniel Aravena         : Magnetic Suceptibility
   Michael Atanasov       : Ab Initio Ligand Field Theory (pilot matlab implementation)
   Alexander A. Auer      : GIAO ZORA, VPT2 properties, NMR spectrum
   Ute Becker             : Parallelization
   Giovanni Bistoni       : ED, misc. LED, open-shell LED, HFLD
   Martin Brehm           : Molecular dynamics
   Dmytro Bykov           : SCF Hessian
   Vijay G. Chilkuri      : MRCI spin determinant printing, contributions to CSF-ICE
   Dipayan Datta          : RHF DLPNO-CCSD density
   Achintya Kumar Dutta   : EOM-CC, STEOM-CC
   Dmitry Ganyushin       : Spin-Orbit,Spin-Spin,Magnetic field MRCI
   Miquel Garcia          : C-PCM and meta-GGA Hessian, CC/C-PCM, Gaussian charge scheme
   Yang Guo               : DLPNO-NEVPT2, F12-NEVPT2, CIM, IAO-localization
   Andreas Hansen         : Spin unrestricted coupled pair/coupled cluster methods
   Benjamin Helmich-Paris : MC-RPA, TRAH-SCF, COSX integrals
   Lee Huntington         : MR-EOM, pCC
   Robert Izsak           : Overlap fitted RIJCOSX, COSX-SCS-MP3, EOM
   Marcus Kettner         : VPT2
   Christian Kollmar      : KDIIS, OOCD, Brueckner-CCSD(T), CCSD density, CASPT2, CASPT2-K
   Simone Kossmann        : Meta GGA functionals, TD-DFT gradient, OOMP2, MP2 Hessian
   Martin Krupicka        : Initial AUTO-CI
   Lucas Lang             : DCDCAS
   Marvin Lechner         : AUTO-CI (C++ implementation), FIC-MRCC
   Dagmar Lenk            : GEPOL surface, SMD
   Dimitrios Liakos       : Extrapolation schemes; Compound Job, initial MDCI parallelization
   Dimitrios Manganas     : Further ROCIS development; embedding schemes
   Dimitrios Pantazis     : SARC Basis sets
   Anastasios Papadopoulos: AUTO-CI, single reference methods and gradients
   Taras Petrenko         : DFT Hessian,TD-DFT gradient, ASA, ECA, R-Raman, ABS, FL, XAS/XES, NRVS
   Peter Pinski           : DLPNO-MP2, DLPNO-MP2 Gradient
   Christoph Reimann      : Effective Core Potentials
   Marius Retegan         : Local ZFS, SOC
   Christoph Riplinger    : Optimizer, TS searches, QM/MM, DLPNO-CCSD(T), (RO)-DLPNO pert. Triples
   Tobias Risthaus        : Range-separated hybrids, TD-DFT gradient, RPA, STAB
   Michael Roemelt        : Original ROCIS implementation
   Masaaki Saitow         : Open-shell DLPNO-CCSD energy and density
   Barbara Sandhoefer     : DKH picture change effects
   Avijit Sen             : IP-ROCIS
   Kantharuban Sivalingam : CASSCF convergence, NEVPT2, FIC-MRCI
   Bernardo de Souza      : ESD, SOC TD-DFT
   Georgi Stoychev        : AutoAux, RI-MP2 NMR, DLPNO-MP2 response
   Willem Van den Heuvel  : Paramagnetic NMR
   Boris Wezisla          : Elementary symmetry handling
   Frank Wennmohs         : Technical directorship


 We gratefully acknowledge several colleagues who have allowed us to
 interface, adapt or use parts of their codes:
   Stefan Grimme, W. Hujo, H. Kruse, P. Pracht,  : VdW corrections, initial TS optimization,
                  C. Bannwarth, S. Ehlert          DFT functionals, gCP, sTDA/sTD-DF
   Ed Valeev, F. Pavosevic, A. Kumar             : LibInt (2-el integral package), F12 methods
   Garnet Chan, S. Sharma, J. Yang, R. Olivares  : DMRG
   Ulf Ekstrom                                   : XCFun DFT Library
   Mihaly Kallay                                 : mrcc  (arbitrary order and MRCC methods)
   Jiri Pittner, Ondrej Demel                    : Mk-CCSD
   Frank Weinhold                                : gennbo (NPA and NBO analysis)
   Christopher J. Cramer and Donald G. Truhlar   : smd solvation model
   Lars Goerigk                                  : TD-DFT with DH, B97 family of functionals
   V. Asgeirsson, H. Jonsson                     : NEB implementation
   FAccTs GmbH                                   : IRC, NEB, NEB-TS, DLPNO-Multilevel, CI-OPT
                                                   MM, QMMM, 2- and 3-layer-ONIOM, Crystal-QMMM,
                                                   LR-CPCM, SF, NACMEs, symmetry and pop. for TD-DFT,
                                                   nearIR, NL-DFT gradient (VV10), updates on ESD,
                                                   ML-optimized integration grids
   S Lehtola, MJT Oliveira, MAL Marques          : LibXC Library
   Liviu Ungur et al                             : ANISO software


 Your calculation uses the libint2 library for the computation of 2-el integrals
 For citations please refer to: http://libint.valeyev.net

 Your ORCA version has been built with support for libXC version: 5.1.0
 For citations please refer to: https://tddft.org/programs/libxc/

 This ORCA versions uses:
   CBLAS   interface :  Fast vector & matrix operations
   LAPACKE interface :  Fast linear algebra routines
   SCALAPACK package :  Parallel linear algebra routines
   Shared memory     :  Shared parallel matrices
   BLAS/LAPACK       :  OpenBLAS 0.3.15  USE64BITINT DYNAMIC_ARCH NO_AFFINITY SkylakeX SINGLE_THREADED
        Core in use  :  SkylakeX
   Copyright (c) 2011-2014, The OpenBLAS Project




***************************************
The coordinates will be read from file: opt_EPRII.xyz
***************************************


================================================================================

----- Orbital basis set information -----
Your calculation utilizes the basis: EPR-II
   V. Barone, in Recent Advances in Density Functional Methods, Part 1 (ed. D. P. Chong), World Scientific, Singapore, 1995, p. 287.

----- AuxJ basis set information -----
Your calculation utilizes the AutoAux generation procedure.
  G. L. Stoychev, A. A. Auer, F. Neese, J. Chem. Theory Comput. 13, 554 (2017)

----- AuxC basis set information -----
Your calculation utilizes the AutoAux generation procedure.
  G. L. Stoychev, A. A. Auer, F. Neese, J. Chem. Theory Comput. 13, 554 (2017)

----- AuxJK basis set information -----
Your calculation utilizes the AutoAux generation procedure.
  G. L. Stoychev, A. A. Auer, F. Neese, J. Chem. Theory Comput. 13, 554 (2017)

================================================================================
                                        WARNINGS
                       Please study these warnings very carefully!
================================================================================


WARNING: your system is open-shell and RHF/RKS was chosen
  ===> : WILL SWITCH to UHF/UKS


INFO   : the flag for use of the SHARK integral package has been found!

================================================================================
                                       INPUT FILE
================================================================================
NAME = EPRII_i.inp
|  1> ! B3LYP EPR-II AUTOAUX
|  2> %pal nprocs 16 end
|  3> *XYZFile 1 2 opt_EPRII.xyz
|  4> %EPRNMR
|  5>         GTENSOR   TRUE
|  6> NUCLEI    = 1,12,13,14,15,16,17,21 {SHIFT, AISO, ADIP, AORB}
|  7>         ORI       GIAO
|  8> END
|  9> 
| 10>                          ****END OF INPUT****
================================================================================

                       ****************************
                       * Single Point Calculation *
                       ****************************

---------------------------------
CARTESIAN COORDINATES (ANGSTROEM)
---------------------------------
  N     -1.639000   -0.028000   -0.002500
  C     -3.104000   -0.042300    0.001900
  C     -1.009100    1.129800   -0.013900
  C      0.377400    1.181400   -0.018300
  O      1.022600    2.377500   -0.030000
  H      1.211900    2.731000    0.849900
  C      1.097700   -0.008600   -0.010000
  C      2.604600    0.001200   -0.013900
  C      0.395600   -1.203200    0.002300
  C      1.130100   -2.519100    0.012100
  C     -0.986200   -1.173800    0.010600
  H     -3.470200   -0.054400   -1.024700
  H     -3.457100   -0.931500    0.524100
  H     -3.474500    0.848300    0.509400
  H     -1.578100    2.047700   -0.020200
  H      2.972400   -0.890700   -0.521100
  H      2.960900    0.889100   -0.536200
  H      1.309800   -2.827200    1.042100
  H      0.528800   -3.274600   -0.493500
  H      2.083000   -2.407100   -0.505100
  H     -1.538800   -2.101700    0.020600

----------------------------
CARTESIAN COORDINATES (A.U.)
----------------------------
  NO LB      ZA    FRAG     MASS         X           Y           Z
   0 N     7.0000    0    14.007   -3.097261   -0.052912   -0.004724
   1 C     6.0000    0    12.011   -5.865710   -0.079935    0.003590
   2 C     6.0000    0    12.011   -1.906923    2.135013   -0.026267
   3 C     6.0000    0    12.011    0.713183    2.232522   -0.034582
   4 O     8.0000    0    15.999    1.932434    4.492824   -0.056692
   5 H     1.0000    0     1.008    2.290159    5.160842    1.606078
   6 C     6.0000    0    12.011    2.074352   -0.016252   -0.018897
   7 C     6.0000    0    12.011    4.921981    0.002268   -0.026267
   8 C     6.0000    0    12.011    0.747576   -2.273718    0.004346
   9 C     6.0000    0    12.011    2.135580   -4.760409    0.022866
  10 C     6.0000    0    12.011   -1.863648   -2.218161    0.020031
  11 H     1.0000    0     1.008   -6.557728   -0.102801   -1.936402
  12 H     1.0000    0     1.008   -6.532972   -1.760280    0.990405
  13 H     1.0000    0     1.008   -6.565853    1.603055    0.962626
  14 H     1.0000    0     1.008   -2.982177    3.869592   -0.038172
  15 H     1.0000    0     1.008    5.617022   -1.683179   -0.984736
  16 H     1.0000    0     1.008    5.595290    1.680156   -1.013271
  17 H     1.0000    0     1.008    2.475163   -5.342634    1.969284
  18 H     1.0000    0     1.008    0.999287   -6.188097   -0.932580
  19 H     1.0000    0     1.008    3.936300   -4.548760   -0.954501
  20 H     1.0000    0     1.008   -2.907911   -3.971637    0.038928

--------------------------------
INTERNAL COORDINATES (ANGSTROEM)
--------------------------------
 N      0   0   0     0.000000000000     0.00000000     0.00000000
 C      1   0   0     1.465076397325     0.00000000     0.00000000
 C      1   2   0     1.318106524527   119.10797765     0.00000000
 C      3   1   2     1.387466817621   120.68008137   179.99623036
 O      4   3   1     1.359071425643   120.47503414   180.00299587
 H      5   4   3     0.966964709801   114.00668708    90.00037406
 C      4   3   1     1.391043126578   119.05296922   359.97637115
 C      7   4   3     1.506936913079   120.81190682   180.02122456
 C      7   4   3     1.385700133507   118.37145526     0.00000000
 C      9   7   4     1.507043164611   120.38876869   180.01979887
 C      1   2   3     1.318778635708   119.10866356   179.72411720
 H      2   1   3     1.090025875840   109.46419075    90.00390716
 H      2   1   3     1.089976646539   109.47141296   209.99920244
 H      2   1   3     1.089951769575   109.47093075   330.00378798
 H      3   1   2     1.079972731137   119.65869762   359.97650754
 H      8   7   4     1.089960682777   109.47028151   210.00135149
 H      8   7   4     1.090006142185   109.47578485   329.99975177
 H     10   9   7     1.090008119236   109.46934666    89.99493152
 H     10   9   7     1.089941879184   109.47206789   209.99661413
 H     10   9   7     1.089980848456   109.46775394   330.00084856
 H     11   1   2     1.080030170875   119.55605401     0.22674066

---------------------------
INTERNAL COORDINATES (A.U.)
---------------------------
 N      0   0   0     0.000000000000     0.00000000     0.00000000
 C      1   0   0     2.768593156217     0.00000000     0.00000000
 C      1   2   0     2.490860346690   119.10797765     0.00000000
 C      3   1   2     2.621932305207   120.68008137   179.99623036
 O      4   3   1     2.568272790904   120.47503414   180.00299587
 H      5   4   3     1.827298482690   114.00668708    90.00037406
 C      4   3   1     2.628690549706   119.05296922   359.97637115
 C      7   4   3     2.847698066816   120.81190682   180.02122456
 C      7   4   3     2.618593756065   118.37145526     0.00000000
 C      9   7   4     2.847898853112   120.38876869   180.01979887
 C      1   2   3     2.492130452755   119.10866356   179.72411720
 H      2   1   3     2.059850384225   109.46419075    90.00390716
 H      2   1   3     2.059757354328   109.47141296   209.99920244
 H      2   1   3     2.059710343680   109.47093075   330.00378798
 H      3   1   2     2.040852693952   119.65869762   359.97650754
 H      8   7   4     2.059727187191   109.47028151   210.00135149
 H      8   7   4     2.059813093021   109.47578485   329.99975177
 H     10   9   7     2.059816829106   109.46934666    89.99493152
 H     10   9   7     2.059691653550   109.47206789   209.99661413
 H     10   9   7     2.059765294800   109.46775394   330.00084856
 H     11   1   2     2.040961239326   119.55605401     0.22674066

---------------------
BASIS SET INFORMATION
---------------------
There are 4 groups of distinct atoms

 Group   1 Type N   : 10s5p1d contracted to 6s2p1d pattern {511111/41/1}
 Group   2 Type C   : 10s5p1d contracted to 6s2p1d pattern {511111/41/1}
 Group   3 Type O   : 10s5p1d contracted to 6s2p1d pattern {511111/41/1}
 Group   4 Type H   : 6s1p contracted to 4s1p pattern {3111/1}

Atom   0N    basis set group =>   1
Atom   1C    basis set group =>   2
Atom   2C    basis set group =>   2
Atom   3C    basis set group =>   2
Atom   4O    basis set group =>   3
Atom   5H    basis set group =>   4
Atom   6C    basis set group =>   2
Atom   7C    basis set group =>   2
Atom   8C    basis set group =>   2
Atom   9C    basis set group =>   2
Atom  10C    basis set group =>   2
Atom  11H    basis set group =>   4
Atom  12H    basis set group =>   4
Atom  13H    basis set group =>   4
Atom  14H    basis set group =>   4
Atom  15H    basis set group =>   4
Atom  16H    basis set group =>   4
Atom  17H    basis set group =>   4
Atom  18H    basis set group =>   4
Atom  19H    basis set group =>   4
Atom  20H    basis set group =>   4
---------------------------------
AUXILIARY/J BASIS SET INFORMATION
---------------------------------
There are 4 groups of distinct atoms

 Group   1 Type N   : 17s13p12d2f contracted to 17s13p12d2f pattern {11111111111111111/1111111111111/111111111111/11}
 Group   2 Type C   : 17s13p12d2f contracted to 17s13p12d2f pattern {11111111111111111/1111111111111/111111111111/11}
 Group   3 Type O   : 17s13p12d2f contracted to 17s13p12d2f pattern {11111111111111111/1111111111111/111111111111/11}
 Group   4 Type H   : 15s6p1d contracted to 15s6p1d pattern {111111111111111/111111/1}

Atom   0N    basis set group =>   1
Atom   1C    basis set group =>   2
Atom   2C    basis set group =>   2
Atom   3C    basis set group =>   2
Atom   4O    basis set group =>   3
Atom   5H    basis set group =>   4
Atom   6C    basis set group =>   2
Atom   7C    basis set group =>   2
Atom   8C    basis set group =>   2
Atom   9C    basis set group =>   2
Atom  10C    basis set group =>   2
Atom  11H    basis set group =>   4
Atom  12H    basis set group =>   4
Atom  13H    basis set group =>   4
Atom  14H    basis set group =>   4
Atom  15H    basis set group =>   4
Atom  16H    basis set group =>   4
Atom  17H    basis set group =>   4
Atom  18H    basis set group =>   4
Atom  19H    basis set group =>   4
Atom  20H    basis set group =>   4
---------------------------------
AUXILIARY/C BASIS SET INFORMATION
---------------------------------
There are 4 groups of distinct atoms

 Group   1 Type N   : 17s13p12d2f contracted to 17s13p12d2f pattern {11111111111111111/1111111111111/111111111111/11}
 Group   2 Type C   : 17s13p12d2f contracted to 17s13p12d2f pattern {11111111111111111/1111111111111/111111111111/11}
 Group   3 Type O   : 17s13p12d2f contracted to 17s13p12d2f pattern {11111111111111111/1111111111111/111111111111/11}
 Group   4 Type H   : 15s6p1d contracted to 15s6p1d pattern {111111111111111/111111/1}

Atom   0N    basis set group =>   1
Atom   1C    basis set group =>   2
Atom   2C    basis set group =>   2
Atom   3C    basis set group =>   2
Atom   4O    basis set group =>   3
Atom   5H    basis set group =>   4
Atom   6C    basis set group =>   2
Atom   7C    basis set group =>   2
Atom   8C    basis set group =>   2
Atom   9C    basis set group =>   2
Atom  10C    basis set group =>   2
Atom  11H    basis set group =>   4
Atom  12H    basis set group =>   4
Atom  13H    basis set group =>   4
Atom  14H    basis set group =>   4
Atom  15H    basis set group =>   4
Atom  16H    basis set group =>   4
Atom  17H    basis set group =>   4
Atom  18H    basis set group =>   4
Atom  19H    basis set group =>   4
Atom  20H    basis set group =>   4
----------------------------------
AUXILIARY/JK BASIS SET INFORMATION
----------------------------------
There are 4 groups of distinct atoms

 Group   1 Type N   : 17s13p12d2f contracted to 17s13p12d2f pattern {11111111111111111/1111111111111/111111111111/11}
 Group   2 Type C   : 17s13p12d2f contracted to 17s13p12d2f pattern {11111111111111111/1111111111111/111111111111/11}
 Group   3 Type O   : 17s13p12d2f contracted to 17s13p12d2f pattern {11111111111111111/1111111111111/111111111111/11}
 Group   4 Type H   : 15s6p1d contracted to 15s6p1d pattern {111111111111111/111111/1}

Atom   0N    basis set group =>   1
Atom   1C    basis set group =>   2
Atom   2C    basis set group =>   2
Atom   3C    basis set group =>   2
Atom   4O    basis set group =>   3
Atom   5H    basis set group =>   4
Atom   6C    basis set group =>   2
Atom   7C    basis set group =>   2
Atom   8C    basis set group =>   2
Atom   9C    basis set group =>   2
Atom  10C    basis set group =>   2
Atom  11H    basis set group =>   4
Atom  12H    basis set group =>   4
Atom  13H    basis set group =>   4
Atom  14H    basis set group =>   4
Atom  15H    basis set group =>   4
Atom  16H    basis set group =>   4
Atom  17H    basis set group =>   4
Atom  18H    basis set group =>   4
Atom  19H    basis set group =>   4
Atom  20H    basis set group =>   4


           ************************************************************
           *        Program running with 16 parallel MPI-processes    *
           *              working on a common directory               *
           ************************************************************
------------------------------------------------------------------------------
                           ORCA GTO INTEGRAL CALCULATION
                           -- RI-GTO INTEGRALS CHOSEN --
------------------------------------------------------------------------------
------------------------------------------------------------------------------
                   ___                                                        
                  /   \      - P O W E R E D   B Y -                         
                 /     \                                                     
                 |  |  |   _    _      __       _____    __    __             
                 |  |  |  | |  | |    /  \     |  _  \  |  |  /  |          
                  \  \/   | |  | |   /    \    | | | |  |  | /  /          
                 / \  \   | |__| |  /  /\  \   | |_| |  |  |/  /          
                |  |  |   |  __  | /  /__\  \  |    /   |      \           
                |  |  |   | |  | | |   __   |  |    \   |  |\   \          
                \     /   | |  | | |  |  |  |  | |\  \  |  | \   \       
                 \___/    |_|  |_| |__|  |__|  |_| \__\ |__|  \__/        
                                                                              
                      - O R C A' S   B I G   F R I E N D -                    
                                      &                                       
                       - I N T E G R A L  F E E D E R -                       
                                                                              
 v1 FN, 2020, v2 2021                                                         
------------------------------------------------------------------------------


Reading SHARK input file EPRII_i.SHARKINP.tmp ... ok
----------------------
SHARK INTEGRAL PACKAGE
----------------------

Number of atoms                             ...     21
Number of basis functions                   ...    247
Number of shells                            ...    145
Maximum angular momentum                    ...      2
Integral batch strategy                     ... SHARK/LIBINT Hybrid
RI-J (if used) integral strategy            ... SPLIT-RIJ (Revised 2003 algorithm where possible)
Printlevel                                  ...      1
Contraction scheme used                     ... SEGMENTED contraction
Coulomb Range Separation                    ... NOT USED
Exchange Range Separation                   ... NOT USED
Finite Nucleus Model                        ... NOT USED
Auxiliary Coulomb fitting basis             ... AVAILABLE
   # of basis functions in Aux-J            ...   1718
   # of shells in Aux-J                     ...    682
   Maximum angular momentum in Aux-J        ...      3
Auxiliary J/K fitting basis                 ... AVAILABLE
   # of basis functions in Aux-JK           ...   1718
   # of shells in Aux-JK                    ...    682
   Maximum angular momentum in Aux-JK       ...      3
Auxiliary Correlation fitting basis         ... AVAILABLE
   # of basis functions in Aux-C            ...   1718
   # of shells in Aux-C                     ...    682
   Maximum angular momentum in Aux-C        ...      3
Auxiliary 'external' fitting basis          ... NOT available
Integral threshold                          ...     1.000000e-10
Primitive cut-off                           ...     1.000000e-11
Primitive pair pre-selection threshold      ...     1.000000e-11

Calculating pre-screening integrals         ... done (  0.0 sec) Dimension = 145
Organizing shell pair data                  ... done (  0.1 sec)
Shell pair information
Total number of shell pairs                 ...     10585
Shell pairs after pre-screening             ...      8132
Total number of primitive shell pairs       ...     28396
Primitive shell pairs kept                  ...     16588
          la=0 lb=0:   3746 shell pairs
          la=1 lb=0:   2721 shell pairs
          la=1 lb=1:    456 shell pairs
          la=2 lb=0:    863 shell pairs
          la=2 lb=1:    292 shell pairs
          la=2 lb=2:     54 shell pairs

Calculating one electron integrals          ... done (  0.0 sec)
Calculating RI/J V-Matrix + Cholesky decomp.... done (  0.2 sec)
Calculating RI/JK V-Matrix + Cholesky decomp... done (  0.2 sec)
Calculating RI/C V-Matrix + Cholesky decomp.... done (  0.2 sec)
Calculating Nuclear repulsion               ... done (  0.0 sec) ENN=    526.032636281795 Eh

SHARK setup successfully completed in   1.0 seconds

Maximum memory used throughout the entire GTOINT-calculation: 16.0 MB


           ************************************************************
           *        Program running with 16 parallel MPI-processes    *
           *              working on a common directory               *
           ************************************************************
-------------------------------------------------------------------------------
                                 ORCA SCF
-------------------------------------------------------------------------------

------------
SCF SETTINGS
------------
Hamiltonian:
 Density Functional     Method          .... DFT(GTOs)
 Exchange Functional    Exchange        .... B88
   X-Alpha parameter    XAlpha          ....  0.666667
   Becke's b parameter  XBeta           ....  0.004200
 Correlation Functional Correlation     .... LYP
 LDA part of GGA corr.  LDAOpt          .... VWN-5
 Gradients option       PostSCFGGA      .... off
 Hybrid DFT is turned on
   Fraction HF Exchange ScalHFX         ....  0.200000
   Scaling of DF-GGA-X  ScalDFX         ....  0.720000
   Scaling of DF-GGA-C  ScalDFC         ....  0.810000
   Scaling of DF-LDA-C  ScalLDAC        ....  1.000000
   Perturbative correction              ....  0.000000
   Density functional embedding theory  .... OFF
   NL short-range parameter             ....  4.800000
 RI-approximation to the Coulomb term is turned on
   Number of AuxJ basis functions       .... 1718
   RIJ-COSX (HFX calculated with COS-X)).... on


General Settings:
 Integral files         IntName         .... EPRII_i
 Hartree-Fock type      HFTyp           .... UHF
 Total Charge           Charge          ....    1
 Multiplicity           Mult            ....    2
 Number of Electrons    NEL             ....   73
 Basis Dimension        Dim             ....  247
 Nuclear Repulsion      ENuc            ....    526.0326362818 Eh

Convergence Acceleration:
 DIIS                   CNVDIIS         .... on
   Start iteration      DIISMaxIt       ....    12
   Startup error        DIISStart       ....  0.200000
   # of expansion vecs  DIISMaxEq       ....     5
   Bias factor          DIISBfac        ....   1.050
   Max. coefficient     DIISMaxC        ....  10.000
 Trust-Rad. Augm. Hess. CNVTRAH         .... auto
   Auto Start mean grad. ratio tolernc. ....  1.125000
   Auto Start start iteration           ....    20
   Auto Start num. interpolation iter.  ....    10
   Max. Number of Micro iterations      ....    16
   Max. Number of Macro iterations      .... Maxiter - #DIIS iter
   Number of Davidson start vectors     ....     2
   Converg. threshold I  (grad. norm)   ....   5.000e-05
   Converg. threshold II (energy diff.) ....   1.000e-06
   Grad. Scal. Fac. for Micro threshold ....   0.100
   Minimum threshold for Micro iter.    ....   0.010
   NR start threshold (gradient norm)   ....   0.001
   Initial trust radius                 ....   0.400
   Minimum AH scaling param. (alpha)    ....   1.000
   Maximum AH scaling param. (alpha)    .... 1000.000
   Orbital update algorithm             .... Taylor
   White noise on init. David. guess    .... on
   Maximum white noise                  ....   0.010
   Quad. conv. algorithm                .... NR
 SOSCF                  CNVSOSCF        .... off
 Level Shifting         CNVShift        .... on
   Level shift para.    LevelShift      ....    0.2500
   Turn off err/grad.   ShiftErr        ....    0.0010
 Zerner damping         CNVZerner       .... off
 Static damping         CNVDamp         .... on
   Fraction old density DampFac         ....    0.7000
   Max. Damping (<1)    DampMax         ....    0.9800
   Min. Damping (>=0)   DampMin         ....    0.0000
   Turn off err/grad.   DampErr         ....    0.1000
 Fernandez-Rico         CNVRico         .... off

SCF Procedure:
 Maximum # iterations   MaxIter         ....   125
 SCF integral mode      SCFMode         .... Direct
   Integral package                     .... SHARK and LIBINT hybrid scheme
 Reset frequency        DirectResetFreq ....    20
 Integral Threshold     Thresh          ....  1.000e-10 Eh
 Primitive CutOff       TCut            ....  1.000e-11 Eh

Convergence Tolerance:
 Convergence Check Mode ConvCheckMode   .... Total+1el-Energy
 Convergence forced     ConvForced      .... 0
 Energy Change          TolE            ....  1.000e-06 Eh
 1-El. energy change                    ....  1.000e-03 Eh
 DIIS Error             TolErr          ....  1.000e-06


Diagonalization of the overlap matrix:
Smallest eigenvalue                        ... 2.434e-04
Time for diagonalization                   ...    0.015 sec
Threshold for overlap eigenvalues          ... 1.000e-08
Number of eigenvalues below threshold      ... 0
Time for construction of square roots      ...    0.024 sec
Total time needed                          ...    0.039 sec

Time for model grid setup =    0.148 sec

------------------------------
INITIAL GUESS: MODEL POTENTIAL
------------------------------
Loading Hartree-Fock densities                     ... done
Calculating cut-offs                               ... done
Initializing the effective Hamiltonian             ... done
Setting up the integral package (SHARK)            ... done
Starting the Coulomb interaction                   ... done (   0.1 sec)
Reading the grid                                   ... done
Mapping shells                                     ... done
Starting the XC term evaluation                    ... done (   0.0 sec)
  promolecular density results
     # of electrons  =     73.990194370
     EX              =    -59.243167960
     EC              =     -2.483837158
     EX+EC           =    -61.727005118
Transforming the Hamiltonian                       ... done (   0.0 sec)
Diagonalizing the Hamiltonian                      ... done (   0.0 sec)
Back transforming the eigenvectors                 ... done (   0.0 sec)
Now organizing SCF variables                       ... done
                      ------------------
                      INITIAL GUESS DONE (   0.5 sec)
                      ------------------
-------------------
DFT GRID GENERATION
-------------------

General Integration Accuracy     IntAcc      ... 4.388
Radial Grid Type                 RadialGrid  ... OptM3 with GC (2021)
Angular Grid (max. ang.)         AngularGrid ... 4 (Lebedev-302)
Angular grid pruning method      GridPruning ... 4 (adaptive)
Weight generation scheme         WeightScheme... Becke
Basis function cutoff            BFCut       ... 1.0000e-10
Integration weight cutoff        WCut        ... 1.0000e-14
Angular grids for H and He will be reduced by one unit
Partially contracted basis set               ... off
Rotationally invariant grid construction     ... off

Total number of grid points                  ...    95274
Total number of batches                      ...     1498
Average number of points per batch           ...       63
Average number of grid points per atom       ...     4537
Time for grid setup =    0.471 sec

--------------------
COSX GRID GENERATION
--------------------

GRIDX 1
-------
General Integration Accuracy     IntAcc      ... 3.816
Radial Grid Type                 RadialGrid  ... OptM3 with GC (2021)
Angular Grid (max. ang.)         AngularGrid ... 1 (Lebedev-50)
Angular grid pruning method      GridPruning ... 4 (adaptive)
Weight generation scheme         WeightScheme... Becke
Basis function cutoff            BFCut       ... 1.0000e-10
Integration weight cutoff        WCut        ... 1.0000e-14
Angular grids for H and He will be reduced by one unit
Partially contracted basis set               ... on
Rotationally invariant grid construction     ... off

Total number of grid points                  ...    12233
Total number of batches                      ...      201
Average number of points per batch           ...       60
Average number of grid points per atom       ...      583
UseSFitting                                  ... on

GRIDX 2
-------
General Integration Accuracy     IntAcc      ... 4.020
Radial Grid Type                 RadialGrid  ... OptM3 with GC (2021)
Angular Grid (max. ang.)         AngularGrid ... 2 (Lebedev-110)
Angular grid pruning method      GridPruning ... 4 (adaptive)
Weight generation scheme         WeightScheme... Becke
Basis function cutoff            BFCut       ... 1.0000e-10
Integration weight cutoff        WCut        ... 1.0000e-14
Angular grids for H and He will be reduced by one unit
Partially contracted basis set               ... on
Rotationally invariant grid construction     ... off

Total number of grid points                  ...    26091
Total number of batches                      ...      417
Average number of points per batch           ...       62
Average number of grid points per atom       ...     1242
UseSFitting                                  ... on

GRIDX 3
-------
General Integration Accuracy     IntAcc      ... 4.338
Radial Grid Type                 RadialGrid  ... OptM3 with GC (2021)
Angular Grid (max. ang.)         AngularGrid ... 3 (Lebedev-194)
Angular grid pruning method      GridPruning ... 4 (adaptive)
Weight generation scheme         WeightScheme... Becke
Basis function cutoff            BFCut       ... 1.0000e-10
Integration weight cutoff        WCut        ... 1.0000e-14
Angular grids for H and He will be reduced by one unit
Partially contracted basis set               ... on
Rotationally invariant grid construction     ... off

Total number of grid points                  ...    57234
Total number of batches                      ...      904
Average number of points per batch           ...       63
Average number of grid points per atom       ...     2725
UseSFitting                                  ... on

Time for X-Grid setup             =    1.035 sec

--------------
SCF ITERATIONS
--------------
ITER       Energy         Delta-E        Max-DP      RMS-DP      [F,P]     Damp
               ***  Starting incremental Fock matrix formation  ***
  0   -440.7746266086   0.000000000000 0.04247045  0.00092771  0.1044762 0.7000
  1   -440.8533429151  -0.078716306590 0.02710773  0.00066545  0.0451827 0.7000
                               ***Turning on DIIS***
  2   -440.8870261674  -0.033683252220 0.05863320  0.00125988  0.0171181 0.0000
  3   -440.9410254100  -0.053999242601 0.02182160  0.00040096  0.0225490 0.0000
  4   -440.9522574466  -0.011232036595 0.00815712  0.00014127  0.0044048 0.0000
  5   -440.9529623467  -0.000704900123 0.00445524  0.00005922  0.0030197 0.0000
  6   -440.9531854576  -0.000223110909 0.00367996  0.00003414  0.0020558 0.0000
  7   -440.9532740842  -0.000088626657 0.00239191  0.00002307  0.0012209 0.0000
  8   -440.9533141210  -0.000040036798 0.00322058  0.00003252  0.0007785 0.0000
               *** Restarting incremental Fock matrix formation ***
                                   *** Resetting DIIS ***
  9   -440.9533125430   0.000001578065 0.00042844  0.00000989  0.0001386 0.0000
 10   -440.9533130404  -0.000000497439 0.00022215  0.00000322  0.0001846 0.0000
                 **** Energy Check signals convergence ****

               *****************************************************
               *                     SUCCESS                       *
               *           SCF CONVERGED AFTER  11 CYCLES          *
               *****************************************************

Old exchange energy                            =    -12.000635711 Eh
New exchange energy                            =    -12.000664915 Eh
Exchange energy change after final integration =     -0.000029204 Eh
Total energy after final integration           =   -440.953342786 Eh
Final COS-X integration done in                =     1.636 sec

----------------
TOTAL SCF ENERGY
----------------

Total Energy       :         -440.95334279 Eh          -11998.95047 eV

Components:
Nuclear Repulsion  :          526.03263628 Eh           14314.07575 eV
Electronic Energy  :         -966.98597907 Eh          -26313.02622 eV
One Electron Energy:        -1626.04001613 Eh          -44246.79830 eV
Two Electron Energy:          659.05403706 Eh           17933.77208 eV
Max COSX asymmetry :            0.00000231 Eh               0.00006 eV

Virial components:
Potential Energy   :         -879.23826475 Eh          -23925.28952 eV
Kinetic Energy     :          438.28492196 Eh           11926.33905 eV
Virial Ratio       :            2.00608832


DFT components:
N(Alpha)           :       36.999981376657 electrons
N(Beta)            :       35.999989612404 electrons
N(Total)           :       72.999970989061 electrons
E(X)               :      -47.652187940127 Eh       
E(C)               :       -2.891045983039 Eh       
E(XC)              :      -50.543233923166 Eh       
DFET-embed. en.    :        0.000000000000 Eh       

---------------
SCF CONVERGENCE
---------------

  Last Energy change         ...   -5.4188e-07  Tolerance :   1.0000e-06
  Last MAX-Density change    ...    0.0000e+00  Tolerance :   1.0000e-05
  Last RMS-Density change    ...    0.0000e+00  Tolerance :   1.0000e-06
  Last DIIS Error            ...    4.8459e-05  Tolerance :   1.0000e-06

             **** THE GBW FILE WAS UPDATED (EPRII_i.gbw) ****
             **** DENSITY EPRII_i.scfp WAS UPDATED ****
             **** ENERGY FILE WAS UPDATED (EPRII_i.en.tmp) ****
----------------------
UHF SPIN CONTAMINATION
----------------------

Warning: in a DFT calculation there is little theoretical justification to 
         calculate <S**2> as in Hartree-Fock theory. We will do it anyways
         but you should keep in mind that the values have only limited relevance

Expectation value of <S**2>     :     0.763607
Ideal value S*(S+1) for S=0.5   :     0.750000
Deviation                       :     0.013607

             **** THE GBW FILE WAS UPDATED (EPRII_i.gbw) ****
             **** DENSITY EPRII_i.scfp WAS UPDATED ****
----------------
ORBITAL ENERGIES
----------------
                 SPIN UP ORBITALS
  NO   OCC          E(Eh)            E(eV) 
   0   1.0000     -19.323737      -525.8256 
   1   1.0000     -14.611402      -397.5965 
   2   1.0000     -10.441857      -284.1374 
   3   1.0000     -10.418987      -283.5150 
   4   1.0000     -10.417195      -283.4663 
   5   1.0000     -10.394001      -282.8351 
   6   1.0000     -10.392755      -282.8012 
   7   1.0000     -10.391690      -282.7723 
   8   1.0000     -10.365804      -282.0679 
   9   1.0000     -10.331705      -281.1400 
  10   1.0000      -1.224372       -33.3168 
  11   1.0000      -1.207500       -32.8577 
  12   1.0000      -1.024822       -27.8868 
  13   1.0000      -0.971454       -26.4346 
  14   1.0000      -0.924173       -25.1480 
  15   1.0000      -0.888906       -24.1884 
  16   1.0000      -0.856059       -23.2945 
  17   1.0000      -0.808366       -21.9968 
  18   1.0000      -0.776738       -21.1361 
  19   1.0000      -0.728216       -19.8158 
  20   1.0000      -0.709330       -19.3019 
  21   1.0000      -0.695024       -18.9126 
  22   1.0000      -0.665568       -18.1110 
  23   1.0000      -0.629472       -17.1288 
  24   1.0000      -0.615930       -16.7603 
  25   1.0000      -0.601280       -16.3617 
  26   1.0000      -0.589425       -16.0391 
  27   1.0000      -0.577461       -15.7135 
  28   1.0000      -0.571611       -15.5543 
  29   1.0000      -0.548924       -14.9370 
  30   1.0000      -0.546251       -14.8643 
  31   1.0000      -0.532848       -14.4995 
  32   1.0000      -0.519871       -14.1464 
  33   1.0000      -0.487616       -13.2687 
  34   1.0000      -0.467862       -12.7312 
  35   1.0000      -0.438221       -11.9246 
  36   1.0000      -0.394111       -10.7243 
  37   0.0000      -0.212124        -5.7722 
  38   0.0000      -0.197079        -5.3628 
  39   0.0000      -0.130973        -3.5640 
  40   0.0000      -0.115006        -3.1295 
  41   0.0000      -0.097283        -2.6472 
  42   0.0000      -0.082226        -2.2375 
  43   0.0000      -0.073559        -2.0017 
  44   0.0000      -0.068427        -1.8620 
  45   0.0000      -0.049750        -1.3538 
  46   0.0000      -0.046149        -1.2558 
  47   0.0000      -0.023636        -0.6432 
  48   0.0000      -0.011115        -0.3025 
  49   0.0000       0.006220         0.1693 
  50   0.0000       0.009065         0.2467 
  51   0.0000       0.017776         0.4837 
  52   0.0000       0.025178         0.6851 
  53   0.0000       0.044024         1.1980 
  54   0.0000       0.050896         1.3849 
  55   0.0000       0.052871         1.4387 
  56   0.0000       0.058336         1.5874 
  57   0.0000       0.070984         1.9316 
  58   0.0000       0.079061         2.1514 
  59   0.0000       0.091891         2.5005 
  60   0.0000       0.095387         2.5956 
  61   0.0000       0.107536         2.9262 
  62   0.0000       0.110013         2.9936 
  63   0.0000       0.124261         3.3813 
  64   0.0000       0.133372         3.6292 
  65   0.0000       0.138487         3.7684 
  66   0.0000       0.148996         4.0544 
  67   0.0000       0.157601         4.2885 
  68   0.0000       0.163129         4.4390 
  69   0.0000       0.167595         4.5605 
  70   0.0000       0.173069         4.7094 
  71   0.0000       0.195193         5.3115 
  72   0.0000       0.205110         5.5813 
  73   0.0000       0.215668         5.8686 
  74   0.0000       0.231075         6.2879 
  75   0.0000       0.235287         6.4025 
  76   0.0000       0.246639         6.7114 
  77   0.0000       0.258716         7.0400 
  78   0.0000       0.269002         7.3199 
  79   0.0000       0.282610         7.6902 
  80   0.0000       0.291038         7.9196 
  81   0.0000       0.299790         8.1577 
  82   0.0000       0.311014         8.4631 
  83   0.0000       0.327126         8.9015 
  84   0.0000       0.334429         9.1003 
  85   0.0000       0.347561         9.4576 
  86   0.0000       0.371865        10.1190 
  87   0.0000       0.384269        10.4565 
  88   0.0000       0.408142        11.1061 
  89   0.0000       0.413505        11.2520 
  90   0.0000       0.472871        12.8675 
  91   0.0000       0.481530        13.1031 
  92   0.0000       0.489902        13.3309 
  93   0.0000       0.508998        13.8505 
  94   0.0000       0.536995        14.6124 
  95   0.0000       0.570116        15.5137 
  96   0.0000       0.585687        15.9374 
  97   0.0000       0.603058        16.4100 
  98   0.0000       0.641728        17.4623 
  99   0.0000       0.651539        17.7293 
 100   0.0000       0.663201        18.0466 
 101   0.0000       0.680151        18.5079 
 102   0.0000       0.692012        18.8306 
 103   0.0000       0.707383        19.2489 
 104   0.0000       0.719716        19.5845 
 105   0.0000       0.731826        19.9140 
 106   0.0000       0.743120        20.2213 
 107   0.0000       0.750555        20.4236 
 108   0.0000       0.762959        20.7612 
 109   0.0000       0.770635        20.9700 
 110   0.0000       0.778382        21.1808 
 111   0.0000       0.791093        21.5267 
 112   0.0000       0.808531        22.0012 
 113   0.0000       0.811154        22.0726 
 114   0.0000       0.820682        22.3319 
 115   0.0000       0.832607        22.6564 
 116   0.0000       0.842418        22.9233 
 117   0.0000       0.863743        23.5036 
 118   0.0000       0.866527        23.5794 
 119   0.0000       0.883672        24.0459 
 120   0.0000       0.902323        24.5535 
 121   0.0000       0.911663        24.8076 
 122   0.0000       0.932281        25.3687 
 123   0.0000       0.951753        25.8985 
 124   0.0000       0.985087        26.8056 
 125   0.0000       1.031593        28.0711 
 126   0.0000       1.034344        28.1459 
 127   0.0000       1.046510        28.4770 
 128   0.0000       1.073603        29.2142 
 129   0.0000       1.098589        29.8941 
 130   0.0000       1.100530        29.9469 
 131   0.0000       1.127396        30.6780 
 132   0.0000       1.165440        31.7132 
 133   0.0000       1.191473        32.4216 
 134   0.0000       1.198786        32.6206 
 135   0.0000       1.212558        32.9954 
 136   0.0000       1.242074        33.7986 
 137   0.0000       1.247590        33.9486 
 138   0.0000       1.274965        34.6936 
 139   0.0000       1.303910        35.4812 
 140   0.0000       1.314393        35.7664 
 141   0.0000       1.341492        36.5038 
 142   0.0000       1.353204        36.8225 
 143   0.0000       1.361723        37.0544 
 144   0.0000       1.396476        38.0000 
 145   0.0000       1.403189        38.1827 
 146   0.0000       1.405652        38.2497 
 147   0.0000       1.421188        38.6725 
 148   0.0000       1.432004        38.9668 
 149   0.0000       1.452206        39.5165 
 150   0.0000       1.460722        39.7483 
 151   0.0000       1.479422        40.2571 
 152   0.0000       1.500752        40.8375 
 153   0.0000       1.512074        41.1456 
 154   0.0000       1.522280        41.4234 
 155   0.0000       1.538236        41.8575 
 156   0.0000       1.554887        42.3106 
 157   0.0000       1.577326        42.9212 
 158   0.0000       1.583825        43.0981 
 159   0.0000       1.601599        43.5817 
 160   0.0000       1.626411        44.2569 
 161   0.0000       1.663474        45.2654 
 162   0.0000       1.676245        45.6129 
 163   0.0000       1.693259        46.0759 
 164   0.0000       1.701570        46.3021 
 165   0.0000       1.740166        47.3523 
 166   0.0000       1.775993        48.3272 
 167   0.0000       1.780320        48.4450 
 168   0.0000       1.809178        49.2302 
 169   0.0000       1.845316        50.2136 
 170   0.0000       1.858036        50.5597 
 171   0.0000       1.880990        51.1844 
 172   0.0000       1.905905        51.8623 
 173   0.0000       1.929196        52.4961 
 174   0.0000       1.944902        52.9235 
 175   0.0000       1.979515        53.8653 
 176   0.0000       2.011275        54.7296 
 177   0.0000       2.023902        55.0732 
 178   0.0000       2.044714        55.6395 
 179   0.0000       2.077045        56.5193 
 180   0.0000       2.106150        57.3112 
 181   0.0000       2.141690        58.2784 
 182   0.0000       2.192674        59.6657 
 183   0.0000       2.201963        59.9185 
 184   0.0000       2.233229        60.7693 
 185   0.0000       2.240743        60.9737 
 186   0.0000       2.270998        61.7970 
 187   0.0000       2.281921        62.0942 
 188   0.0000       2.307833        62.7993 
 189   0.0000       2.337956        63.6190 
 190   0.0000       2.340074        63.6767 
 191   0.0000       2.346572        63.8535 
 192   0.0000       2.375501        64.6407 
 193   0.0000       2.382667        64.8357 
 194   0.0000       2.484305        67.6014 
 195   0.0000       2.523897        68.6787 
 196   0.0000       2.562223        69.7216 
 197   0.0000       2.566602        69.8408 
 198   0.0000       2.743879        74.6647 
 199   0.0000       2.759051        75.0776 
 200   0.0000       2.836399        77.1823 
 201   0.0000       3.027315        82.3774 
 202   0.0000       3.082502        83.8791 
 203   0.0000       3.308093        90.0178 
 204   0.0000       3.346168        91.0539 
 205   0.0000       4.804842       130.7464 
 206   0.0000       4.831434       131.4700 
 207   0.0000       4.859748       132.2405 
 208   0.0000       4.874941       132.6539 
 209   0.0000       4.887769       133.0030 
 210   0.0000       4.927759       134.0911 
 211   0.0000       4.951585       134.7395 
 212   0.0000       5.051942       137.4703 
 213   0.0000       5.081559       138.2762 
 214   0.0000       5.101273       138.8127 
 215   0.0000       5.141245       139.9004 
 216   0.0000       5.234090       142.4268 
 217   0.0000       5.279061       143.6506 
 218   0.0000       5.306187       144.3887 
 219   0.0000       5.366871       146.0400 
 220   0.0000       5.426246       147.6557 
 221   0.0000       5.486712       149.3010 
 222   0.0000       5.561557       151.3377 
 223   0.0000       5.794812       157.6848 
 224   0.0000       7.138668       194.2530 
 225   0.0000       8.932474       243.0650 
 226   0.0000      29.544447       803.9453 
 227   0.0000      29.697125       808.0998 
 228   0.0000      29.763981       809.9191 
 229   0.0000      29.783422       810.4481 
 230   0.0000      29.847305       812.1865 
 231   0.0000      29.877816       813.0167 
 232   0.0000      29.956958       815.1703 
 233   0.0000      30.099454       819.0478 
 234   0.0000      36.389662       990.2130 
 235   0.0000      36.453369       991.9466 
 236   0.0000      36.466481       992.3034 
 237   0.0000      36.496264       993.1138 
 238   0.0000      36.498843       993.1840 
 239   0.0000      36.556737       994.7594 
 240   0.0000      36.634328       996.8707 
 241   0.0000      36.659733       997.5620 
 242   0.0000      36.683478       998.2082 
 243   0.0000      36.730944       999.4998 
 244   0.0000      36.821045      1001.9516 
 245   0.0000      41.071905      1117.6234 
 246   0.0000      53.473041      1455.0754 

                 SPIN DOWN ORBITALS
  NO   OCC          E(Eh)            E(eV) 
   0   1.0000     -19.323551      -525.8206 
   1   1.0000     -14.609030      -397.5319 
   2   1.0000     -10.440072      -284.0888 
   3   1.0000     -10.419524      -283.5297 
   4   1.0000     -10.417798      -283.4827 
   5   1.0000     -10.394105      -282.8380 
   6   1.0000     -10.393352      -282.8175 
   7   1.0000     -10.390891      -282.7505 
   8   1.0000     -10.352834      -281.7149 
   9   1.0000     -10.331814      -281.1430 
  10   1.0000      -1.222825       -33.2747 
  11   1.0000      -1.204758       -32.7831 
  12   1.0000      -1.021944       -27.8085 
  13   1.0000      -0.970219       -26.4010 
  14   1.0000      -0.919950       -25.0331 
  15   1.0000      -0.886797       -24.1310 
  16   1.0000      -0.844662       -22.9844 
  17   1.0000      -0.804771       -21.8989 
  18   1.0000      -0.768625       -20.9153 
  19   1.0000      -0.726577       -19.7712 
  20   1.0000      -0.707796       -19.2601 
  21   1.0000      -0.693812       -18.8796 
  22   1.0000      -0.659846       -17.9553 
  23   1.0000      -0.626516       -17.0484 
  24   1.0000      -0.614685       -16.7264 
  25   1.0000      -0.597224       -16.2513 
  26   1.0000      -0.587760       -15.9938 
  27   1.0000      -0.575099       -15.6492 
  28   1.0000      -0.568881       -15.4800 
  29   1.0000      -0.546886       -14.8815 
  30   1.0000      -0.542832       -14.7712 
  31   1.0000      -0.527735       -14.3604 
  32   1.0000      -0.514864       -14.0102 
  33   1.0000      -0.472379       -12.8541 
  34   1.0000      -0.465497       -12.6668 
  35   1.0000      -0.433772       -11.8035 
  36   0.0000      -0.277686        -7.5562 
  37   0.0000      -0.191316        -5.2060 
  38   0.0000      -0.185774        -5.0552 
  39   0.0000      -0.130634        -3.5547 
  40   0.0000      -0.113857        -3.0982 
  41   0.0000      -0.097035        -2.6405 
  42   0.0000      -0.081723        -2.2238 
  43   0.0000      -0.073078        -1.9886 
  44   0.0000      -0.068045        -1.8516 
  45   0.0000      -0.047084        -1.2812 
  46   0.0000      -0.039295        -1.0693 
  47   0.0000      -0.022838        -0.6214 
  48   0.0000      -0.009614        -0.2616 
  49   0.0000       0.009560         0.2601 
  50   0.0000       0.010197         0.2775 
  51   0.0000       0.018676         0.5082 
  52   0.0000       0.028819         0.7842 
  53   0.0000       0.045584         1.2404 
  54   0.0000       0.053720         1.4618 
  55   0.0000       0.054913         1.4943 
  56   0.0000       0.059466         1.6182 
  57   0.0000       0.073139         1.9902 
  58   0.0000       0.079577         2.1654 
  59   0.0000       0.095431         2.5968 
  60   0.0000       0.098648         2.6843 
  61   0.0000       0.108959         2.9649 
  62   0.0000       0.110905         3.0179 
  63   0.0000       0.125551         3.4164 
  64   0.0000       0.138609         3.7717 
  65   0.0000       0.140724         3.8293 
  66   0.0000       0.151368         4.1189 
  67   0.0000       0.159289         4.3345 
  68   0.0000       0.166944         4.5428 
  69   0.0000       0.172803         4.7022 
  70   0.0000       0.177901         4.8409 
  71   0.0000       0.203724         5.5436 
  72   0.0000       0.207759         5.6534 
  73   0.0000       0.223926         6.0933 
  74   0.0000       0.234493         6.3809 
  75   0.0000       0.238074         6.4783 
  76   0.0000       0.250055         6.8043 
  77   0.0000       0.261300         7.1103 
  78   0.0000       0.273388         7.4393 
  79   0.0000       0.285479         7.7683 
  80   0.0000       0.293843         7.9959 
  81   0.0000       0.301026         8.1913 
  82   0.0000       0.314302         8.5526 
  83   0.0000       0.331536         9.0216 
  84   0.0000       0.337411         9.1814 
  85   0.0000       0.352247         9.5851 
  86   0.0000       0.373867        10.1734 
  87   0.0000       0.387042        10.5320 
  88   0.0000       0.410037        11.1577 
  89   0.0000       0.415212        11.2985 
  90   0.0000       0.473918        12.8960 
  91   0.0000       0.483892        13.1674 
  92   0.0000       0.493649        13.4329 
  93   0.0000       0.510338        13.8870 
  94   0.0000       0.538929        14.6650 
  95   0.0000       0.574852        15.6425 
  96   0.0000       0.587040        15.9742 
  97   0.0000       0.607855        16.5406 
  98   0.0000       0.642556        17.4848 
  99   0.0000       0.652868        17.7654 
 100   0.0000       0.665934        18.1210 
 101   0.0000       0.681031        18.5318 
 102   0.0000       0.694128        18.8882 
 103   0.0000       0.709064        19.2946 
 104   0.0000       0.720756        19.6128 
 105   0.0000       0.732846        19.9418 
 106   0.0000       0.744607        20.2618 
 107   0.0000       0.752938        20.4885 
 108   0.0000       0.767203        20.8766 
 109   0.0000       0.772247        21.0139 
 110   0.0000       0.779673        21.2160 
 111   0.0000       0.794057        21.6074 
 112   0.0000       0.811913        22.0933 
 113   0.0000       0.813526        22.1372 
 114   0.0000       0.826343        22.4859 
 115   0.0000       0.837960        22.8021 
 116   0.0000       0.844493        22.9798 
 117   0.0000       0.866723        23.5847 
 118   0.0000       0.871306        23.7094 
 119   0.0000       0.885896        24.1065 
 120   0.0000       0.902470        24.5574 
 121   0.0000       0.916797        24.9473 
 122   0.0000       0.936365        25.4798 
 123   0.0000       0.952744        25.9255 
 124   0.0000       0.988955        26.9108 
 125   0.0000       1.034845        28.1596 
 126   0.0000       1.035512        28.1777 
 127   0.0000       1.052100        28.6291 
 128   0.0000       1.086700        29.5706 
 129   0.0000       1.102173        29.9916 
 130   0.0000       1.106899        30.1202 
 131   0.0000       1.134611        30.8743 
 132   0.0000       1.169819        31.8324 
 133   0.0000       1.193146        32.4671 
 134   0.0000       1.204127        32.7659 
 135   0.0000       1.213600        33.0237 
 136   0.0000       1.248038        33.9608 
 137   0.0000       1.258542        34.2467 
 138   0.0000       1.276369        34.7318 
 139   0.0000       1.308309        35.6009 
 140   0.0000       1.315242        35.7896 
 141   0.0000       1.346892        36.6508 
 142   0.0000       1.354561        36.8595 
 143   0.0000       1.363659        37.1071 
 144   0.0000       1.398742        38.0617 
 145   0.0000       1.405916        38.2569 
 146   0.0000       1.406947        38.2850 
 147   0.0000       1.425182        38.7812 
 148   0.0000       1.433282        39.0016 
 149   0.0000       1.454468        39.5781 
 150   0.0000       1.462002        39.7831 
 151   0.0000       1.482875        40.3511 
 152   0.0000       1.503315        40.9073 
 153   0.0000       1.518744        41.3271 
 154   0.0000       1.525613        41.5140 
 155   0.0000       1.541146        41.9367 
 156   0.0000       1.556977        42.3675 
 157   0.0000       1.580000        42.9940 
 158   0.0000       1.585975        43.1566 
 159   0.0000       1.604033        43.6480 
 160   0.0000       1.627843        44.2959 
 161   0.0000       1.669486        45.4290 
 162   0.0000       1.677674        45.6518 
 163   0.0000       1.696583        46.1664 
 164   0.0000       1.717232        46.7283 
 165   0.0000       1.746159        47.5154 
 166   0.0000       1.779715        48.4285 
 167   0.0000       1.788229        48.6602 
 168   0.0000       1.810745        49.2729 
 169   0.0000       1.846960        50.2583 
 170   0.0000       1.863624        50.7118 
 171   0.0000       1.883274        51.2465 
 172   0.0000       1.908905        51.9439 
 173   0.0000       1.932176        52.5772 
 174   0.0000       1.946981        52.9800 
 175   0.0000       1.984702        54.0065 
 176   0.0000       2.012719        54.7689 
 177   0.0000       2.026060        55.1319 
 178   0.0000       2.047219        55.7077 
 179   0.0000       2.078818        56.5675 
 180   0.0000       2.107933        57.3598 
 181   0.0000       2.144055        58.3427 
 182   0.0000       2.194419        59.7132 
 183   0.0000       2.205425        60.0127 
 184   0.0000       2.237587        60.8878 
 185   0.0000       2.241765        61.0015 
 186   0.0000       2.272335        61.8334 
 187   0.0000       2.282954        62.1223 
 188   0.0000       2.312145        62.9167 
 189   0.0000       2.338609        63.6368 
 190   0.0000       2.343031        63.7571 
 191   0.0000       2.353377        64.0387 
 192   0.0000       2.379146        64.7398 
 193   0.0000       2.384190        64.8771 
 194   0.0000       2.487176        67.6795 
 195   0.0000       2.526709        68.7553 
 196   0.0000       2.564171        69.7746 
 197   0.0000       2.569405        69.9171 
 198   0.0000       2.744756        74.6886 
 199   0.0000       2.760122        75.1067 
 200   0.0000       2.837718        77.2182 
 201   0.0000       3.028244        82.4027 
 202   0.0000       3.083216        83.8986 
 203   0.0000       3.309188        90.0476 
 204   0.0000       3.346784        91.0706 
 205   0.0000       4.806376       130.7881 
 206   0.0000       4.832785       131.5068 
 207   0.0000       4.860165       132.2518 
 208   0.0000       4.875723       132.6752 
 209   0.0000       4.887622       132.9990 
 210   0.0000       4.927991       134.0975 
 211   0.0000       4.954464       134.8178 
 212   0.0000       5.052213       137.4777 
 213   0.0000       5.082741       138.3084 
 214   0.0000       5.101483       138.8184 
 215   0.0000       5.144239       139.9819 
 216   0.0000       5.239397       142.5712 
 217   0.0000       5.280854       143.6993 
 218   0.0000       5.311124       144.5230 
 219   0.0000       5.378590       146.3589 
 220   0.0000       5.430696       147.7768 
 221   0.0000       5.486584       149.2975 
 222   0.0000       5.562650       151.3674 
 223   0.0000       5.797830       157.7670 
 224   0.0000       7.143710       194.3902 
 225   0.0000       8.932934       243.0775 
 226   0.0000      29.549019       804.0697 
 227   0.0000      29.697280       808.1041 
 228   0.0000      29.768327       810.0374 
 229   0.0000      29.791368       810.6643 
 230   0.0000      29.849602       812.2490 
 231   0.0000      29.876900       812.9918 
 232   0.0000      29.957800       815.1932 
 233   0.0000      30.100979       819.0893 
 234   0.0000      36.392136       990.2804 
 235   0.0000      36.455478       992.0040 
 236   0.0000      36.467178       992.3224 
 237   0.0000      36.495622       993.0964 
 238   0.0000      36.498876       993.1849 
 239   0.0000      36.555271       994.7195 
 240   0.0000      36.634600       996.8782 
 241   0.0000      36.659994       997.5692 
 242   0.0000      36.680056       998.1151 
 243   0.0000      36.732231       999.5348 
 244   0.0000      36.821901      1001.9749 
 245   0.0000      41.074877      1117.7042 
 246   0.0000      53.473264      1455.0815 

                    ********************************
                    * MULLIKEN POPULATION ANALYSIS *
                    ********************************

--------------------------------------------
MULLIKEN ATOMIC CHARGES AND SPIN POPULATIONS
--------------------------------------------
   0 N :    0.417054    0.091326
   1 C :   -0.428763   -0.005732
   2 C :   -0.225153   -0.028545
   3 C :    0.101995    0.101312
   4 O :   -0.345844    0.004068
   5 H :    0.318704    0.004389
   6 C :    0.240970   -0.086095
   7 C :   -0.408139    0.868673
   8 C :    0.350177    0.110485
   9 C :   -0.539664   -0.005842
  10 C :   -0.321230   -0.033019
  11 H :    0.219242    0.006754
  12 H :    0.184515    0.001538
  13 H :    0.184667    0.001674
  14 H :    0.179338    0.001373
  15 H :    0.166101   -0.020771
  16 H :    0.197902   -0.020391
  17 H :    0.205511    0.003611
  18 H :    0.168655    0.000612
  19 H :    0.163119    0.002877
  20 H :    0.170844    0.001702
Sum of atomic charges         :    1.0000000
Sum of atomic spin populations:    1.0000000

-----------------------------------------------------
MULLIKEN REDUCED ORBITAL CHARGES AND SPIN POPULATIONS
-----------------------------------------------------
CHARGE
  0 N s       :     3.216525  s :     3.216525
      pz      :     1.344651  p :     3.308574
      px      :     1.002184
      py      :     0.961739
      dz2     :     0.002842  d :     0.057848
      dxz     :     0.006779
      dyz     :     0.011658
      dx2y2   :     0.017691
      dxy     :     0.018878
  1 C s       :     3.225208  s :     3.225208
      pz      :     1.179217  p :     3.120081
      px      :     0.781148
      py      :     1.159715
      dz2     :     0.016646  d :     0.083475
      dxz     :     0.015419
      dyz     :     0.013023
      dx2y2   :     0.024427
      dxy     :     0.013960
  2 C s       :     3.168598  s :     3.168598
      pz      :     0.971354  p :     2.963109
      px      :     1.008843
      py      :     0.982912
      dz2     :     0.005713  d :     0.093447
      dxz     :     0.012487
      dyz     :     0.012432
      dx2y2   :     0.030251
      dxy     :     0.032563
  3 C s       :     3.046210  s :     3.046210
      pz      :     0.945141  p :     2.705264
      px      :     0.938569
      py      :     0.821553
      dz2     :     0.006856  d :     0.146531
      dxz     :     0.015243
      dyz     :     0.023126
      dx2y2   :     0.055167
      dxy     :     0.046139
  4 O s       :     3.825168  s :     3.825168
      pz      :     1.441329  p :     4.504077
      px      :     1.711706
      py      :     1.351041
      dz2     :     0.006210  d :     0.016600
      dxz     :     0.001419
      dyz     :     0.003034
      dx2y2   :     0.002554
      dxy     :     0.003382
  5 H s       :     0.618393  s :     0.618393
      pz      :     0.021701  p :     0.062903
      px      :     0.021234
      py      :     0.019968
  6 C s       :     3.055400  s :     3.055400
      pz      :     0.915857  p :     2.620137
      px      :     0.808590
      py      :     0.895690
      dz2     :     0.004581  d :     0.083493
      dxz     :     0.013015
      dyz     :     0.010219
      dx2y2   :     0.023906
      dxy     :     0.031772
  7 C s       :     3.406029  s :     3.406029
      pz      :     0.894545  p :     2.947344
      px      :     0.938878
      py      :     1.113921
      dz2     :     0.003032  d :     0.054766
      dxz     :     0.006772
      dyz     :     0.015717
      dx2y2   :     0.018955
      dxy     :     0.010289
  8 C s       :     3.011348  s :     3.011348
      pz      :     0.890645  p :     2.551476
      px      :     0.856113
      py      :     0.804718
      dz2     :     0.004555  d :     0.086999
      dxz     :     0.011589
      dyz     :     0.012592
      dx2y2   :     0.031768
      dxy     :     0.026496
  9 C s       :     3.242137  s :     3.242137
      pz      :     1.141476  p :     3.231228
      px      :     1.096391
      py      :     0.993361
      dz2     :     0.014635  d :     0.066299
      dxz     :     0.012413
      dyz     :     0.010775
      dx2y2   :     0.012488
      dxy     :     0.015987
 10 C s       :     3.204525  s :     3.204525
      pz      :     0.965269  p :     3.017722
      px      :     1.021018
      py      :     1.031435
      dz2     :     0.005725  d :     0.098983
      dxz     :     0.012402
      dyz     :     0.012101
      dx2y2   :     0.029831
      dxy     :     0.038924
 11 H s       :     0.762384  s :     0.762384
      pz      :     0.010054  p :     0.018374
      px      :     0.003744
      py      :     0.004576
 12 H s       :     0.796759  s :     0.796759
      pz      :     0.006155  p :     0.018727
      px      :     0.003997
      py      :     0.008575
 13 H s       :     0.796598  s :     0.796598
      pz      :     0.006082  p :     0.018735
      px      :     0.004084
      py      :     0.008569
 14 H s       :     0.798581  s :     0.798581
      pz      :     0.005502  p :     0.022081
      px      :     0.006079
      py      :     0.010501
 15 H s       :     0.812194  s :     0.812194
      pz      :     0.006224  p :     0.021705
      px      :     0.006395
      py      :     0.009086
 16 H s       :     0.781771  s :     0.781771
      pz      :     0.005837  p :     0.020327
      px      :     0.005546
      py      :     0.008943
 17 H s       :     0.774560  s :     0.774560
      pz      :     0.009548  p :     0.019929
      px      :     0.004879
      py      :     0.005502
 18 H s       :     0.811779  s :     0.811779
      pz      :     0.005741  p :     0.019566
      px      :     0.005745
      py      :     0.008079
 19 H s       :     0.815914  s :     0.815914
      pz      :     0.005885  p :     0.020968
      px      :     0.009398
      py      :     0.005684
 20 H s       :     0.807101  s :     0.807101
      pz      :     0.005549  p :     0.022055
      px      :     0.006101
      py      :     0.010405

SPIN
  0 N s       :     0.004044  s :     0.004044
      pz      :     0.081384  p :     0.088110
      px      :     0.002939
      py      :     0.003787
      dz2     :    -0.000210  d :    -0.000827
      dxz     :    -0.000040
      dyz     :    -0.000499
      dx2y2   :    -0.000037
      dxy     :    -0.000041
  1 C s       :    -0.001774  s :    -0.001774
      pz      :    -0.000927  p :    -0.005398
      px      :    -0.003750
      py      :    -0.000721
      dz2     :     0.000091  d :     0.001440
      dxz     :     0.001295
      dyz     :    -0.000004
      dx2y2   :     0.000053
      dxy     :     0.000006
  2 C s       :    -0.003542  s :    -0.003542
      pz      :    -0.021986  p :    -0.028078
      px      :    -0.003700
      py      :    -0.002392
      dz2     :     0.000082  d :     0.003075
      dxz     :     0.002442
      dyz     :     0.000474
      dx2y2   :     0.000104
      dxy     :    -0.000026
  3 C s       :     0.005829  s :     0.005829
      pz      :     0.093537  p :     0.096080
      px      :    -0.001144
      py      :     0.003686
      dz2     :    -0.000345  d :    -0.000596
      dxz     :     0.000304
      dyz     :    -0.000521
      dx2y2   :     0.000064
      dxy     :    -0.000098
  4 O s       :     0.000418  s :     0.000418
      pz      :     0.003556  p :     0.003439
      px      :     0.000394
      py      :    -0.000511
      dz2     :     0.000026  d :     0.000212
      dxz     :     0.000061
      dyz     :     0.000125
      dx2y2   :    -0.000000
      dxy     :     0.000000
  5 H s       :     0.004473  s :     0.004473
      pz      :    -0.000042  p :    -0.000085
      px      :    -0.000019
      py      :    -0.000024
  6 C s       :    -0.009561  s :    -0.009561
      pz      :    -0.082662  p :    -0.086591
      px      :    -0.004362
      py      :     0.000433
      dz2     :     0.000256  d :     0.010057
      dxz     :     0.009169
      dyz     :     0.000295
      dx2y2   :     0.000248
      dxy     :     0.000090
  7 C s       :     0.116105  s :     0.116105
      pz      :     0.637060  p :     0.757690
      px      :     0.091869
      py      :     0.028762
      dz2     :    -0.001194  d :    -0.005122
      dxz     :    -0.001541
      dyz     :    -0.002072
      dx2y2   :    -0.000769
      dxy     :     0.000453
  8 C s       :     0.006062  s :     0.006062
      pz      :     0.099925  p :     0.105325
      px      :    -0.000564
      py      :     0.005965
      dz2     :    -0.000361  d :    -0.000902
      dxz     :     0.000087
      dyz     :    -0.000499
      dx2y2   :    -0.000045
      dxy     :    -0.000083
  9 C s       :    -0.001410  s :    -0.001410
      pz      :    -0.001420  p :    -0.005679
      px      :    -0.001872
      py      :    -0.002387
      dz2     :     0.000114  d :     0.001247
      dxz     :     0.000465
      dyz     :     0.000594
      dx2y2   :     0.000042
      dxy     :     0.000034
 10 C s       :    -0.003843  s :    -0.003843
      pz      :    -0.025718  p :    -0.032309
      px      :    -0.004011
      py      :    -0.002580
      dz2     :     0.000092  d :     0.003133
      dxz     :     0.002473
      dyz     :     0.000476
      dx2y2   :     0.000103
      dxy     :    -0.000012
 11 H s       :     0.006770  s :     0.006770
      pz      :     0.000002  p :    -0.000016
      px      :    -0.000027
      py      :     0.000009
 12 H s       :     0.001555  s :     0.001555
      pz      :    -0.000004  p :    -0.000017
      px      :    -0.000018
      py      :     0.000005
 13 H s       :     0.001691  s :     0.001691
      pz      :    -0.000003  p :    -0.000017
      px      :    -0.000018
      py      :     0.000004
 14 H s       :     0.001537  s :     0.001537
      pz      :    -0.000157  p :    -0.000164
      px      :    -0.000012
      py      :     0.000005
 15 H s       :    -0.024335  s :    -0.024335
      pz      :     0.002465  p :     0.003564
      px      :     0.000871
      py      :     0.000228
 16 H s       :    -0.023636  s :    -0.023636
      pz      :     0.002039  p :     0.003244
      px      :     0.000851
      py      :     0.000354
 17 H s       :     0.003631  s :     0.003631
      pz      :    -0.000002  p :    -0.000020
      px      :    -0.000002
      py      :    -0.000015
 18 H s       :     0.000636  s :     0.000636
      pz      :    -0.000006  p :    -0.000024
      px      :     0.000001
      py      :    -0.000019
 19 H s       :     0.002953  s :     0.002953
      pz      :     0.000013  p :    -0.000077
      px      :    -0.000046
      py      :    -0.000044
 20 H s       :     0.001886  s :     0.001886
      pz      :    -0.000176  p :    -0.000184
      px      :    -0.000015
      py      :     0.000007


                     *******************************
                     * LOEWDIN POPULATION ANALYSIS *
                     *******************************

-------------------------------------------
LOEWDIN ATOMIC CHARGES AND SPIN POPULATIONS
-------------------------------------------
   0 N :    0.169593    0.082036
   1 C :    0.072875    0.000000
   2 C :    0.030365   -0.013060
   3 C :   -0.035731    0.083957
   4 O :    0.023568    0.006808
   5 H :    0.110049    0.003607
   6 C :   -0.042423   -0.038860
   7 C :    0.077156    0.776835
   8 C :   -0.034765    0.086659
   9 C :    0.004389   -0.000461
  10 C :    0.023909   -0.015540
  11 H :    0.059866    0.004732
  12 H :    0.055920    0.001093
  13 H :    0.055987    0.001191
  14 H :    0.080116   -0.000181
  15 H :    0.046712    0.008120
  16 H :    0.059143    0.007485
  17 H :    0.065112    0.003032
  18 H :    0.052838    0.000667
  19 H :    0.049147    0.002024
  20 H :    0.076173   -0.000146

----------------------------------------------------
LOEWDIN REDUCED ORBITAL CHARGES AND SPIN POPULATIONS
----------------------------------------------------
CHARGE
  0 N s       :     3.027879  s :     3.027879
      pz      :     1.270943  p :     3.659306
      px      :     1.179661
      py      :     1.208702
      dz2     :     0.006578  d :     0.143222
      dxz     :     0.013800
      dyz     :     0.027975
      dx2y2   :     0.049136
      dxy     :     0.045733
  1 C s       :     2.850785  s :     2.850785
      pz      :     1.062013  p :     2.930664
      px      :     0.810884
      py      :     1.057767
      dz2     :     0.025763  d :     0.145677
      dxz     :     0.032362
      dyz     :     0.014384
      dx2y2   :     0.051362
      dxy     :     0.021806
  2 C s       :     2.832177  s :     2.832177
      pz      :     0.939355  p :     2.903357
      px      :     1.021375
      py      :     0.942626
      dz2     :     0.016561  d :     0.234102
      dxz     :     0.032870
      dyz     :     0.029398
      dx2y2   :     0.073320
      dxy     :     0.081954
  3 C s       :     2.812738  s :     2.812738
      pz      :     0.908936  p :     2.859891
      px      :     1.026499
      py      :     0.924456
      dz2     :     0.021930  d :     0.363101
      dxz     :     0.037077
      dyz     :     0.048169
      dx2y2   :     0.136212
      dxy     :     0.119712
  4 O s       :     3.424307  s :     3.424307
      pz      :     1.436507  p :     4.527136
      px      :     1.679200
      py      :     1.411429
      dz2     :     0.007004  d :     0.024989
      dxz     :     0.001522
      dyz     :     0.004388
      dx2y2   :     0.005248
      dxy     :     0.006827
  5 H s       :     0.688496  s :     0.688496
      pz      :     0.099738  p :     0.201454
      px      :     0.054757
      py      :     0.046959
  6 C s       :     2.841954  s :     2.841954
      pz      :     0.873654  p :     2.955771
      px      :     1.038981
      py      :     1.043136
      dz2     :     0.015174  d :     0.244698
      dxz     :     0.031356
      dyz     :     0.028186
      dx2y2   :     0.083033
      dxy     :     0.086950
  7 C s       :     2.959667  s :     2.959667
      pz      :     0.858199  p :     2.868668
      px      :     0.968735
      py      :     1.041733
      dz2     :     0.007085  d :     0.094509
      dxz     :     0.013259
      dyz     :     0.015041
      dx2y2   :     0.036998
      dxy     :     0.022125
  8 C s       :     2.840458  s :     2.840458
      pz      :     0.864783  p :     2.948719
      px      :     1.041837
      py      :     1.042099
      dz2     :     0.014252  d :     0.245588
      dxz     :     0.031717
      dyz     :     0.031276
      dx2y2   :     0.088856
      dxy     :     0.079487
  9 C s       :     2.846582  s :     2.846582
      pz      :     1.038866  p :     3.033998
      px      :     1.015187
      py      :     0.979944
      dz2     :     0.021087  d :     0.115031
      dxz     :     0.016522
      dyz     :     0.018876
      dx2y2   :     0.025861
      dxy     :     0.032684
 10 C s       :     2.826594  s :     2.826594
      pz      :     0.933952  p :     2.905931
      px      :     1.032319
      py      :     0.939660
      dz2     :     0.015976  d :     0.243566
      dxz     :     0.032661
      dyz     :     0.028485
      dx2y2   :     0.071507
      dxy     :     0.094937
 11 H s       :     0.857761  s :     0.857761
      pz      :     0.048539  p :     0.082373
      px      :     0.016474
      py      :     0.017360
 12 H s       :     0.862518  s :     0.862518
      pz      :     0.025621  p :     0.081561
      px      :     0.015809
      py      :     0.040132
 13 H s       :     0.862419  s :     0.862419
      pz      :     0.025156  p :     0.081594
      px      :     0.016310
      py      :     0.040127
 14 H s       :     0.832342  s :     0.832342
      pz      :     0.018672  p :     0.087543
      px      :     0.024377
      py      :     0.044493
 15 H s       :     0.861972  s :     0.861972
      pz      :     0.027628  p :     0.091316
      px      :     0.020164
      py      :     0.043524
 16 H s       :     0.851407  s :     0.851407
      pz      :     0.027964  p :     0.089451
      px      :     0.019287
      py      :     0.042200
 17 H s       :     0.851889  s :     0.851889
      pz      :     0.046244  p :     0.082999
      px      :     0.017962
      py      :     0.018792
 18 H s       :     0.865232  s :     0.865232
      pz      :     0.024080  p :     0.081929
      px      :     0.025699
      py      :     0.032151
 19 H s       :     0.865308  s :     0.865308
      pz      :     0.024570  p :     0.085545
      px      :     0.043296
      py      :     0.017679
 20 H s       :     0.837421  s :     0.837421
      pz      :     0.018493  p :     0.086406
      px      :     0.023569
      py      :     0.044344

SPIN
  0 N s       :     0.002813  s :     0.002813
      pz      :     0.076802  p :     0.081170
      px      :     0.002231
      py      :     0.002136
      dz2     :    -0.000202  d :    -0.001946
      dxz     :    -0.000079
      dyz     :    -0.001252
      dx2y2   :    -0.000205
      dxy     :    -0.000209
  1 C s       :    -0.000551  s :    -0.000551
      pz      :    -0.000364  p :    -0.003400
      px      :    -0.002629
      py      :    -0.000407
      dz2     :     0.000261  d :     0.003951
      dxz     :     0.003400
      dyz     :    -0.000003
      dx2y2   :     0.000247
      dxy     :     0.000046
[...]
                    *** THE CP-SCF HAS CONVERGED ***

Forming final perturbed densities           ... done
Transforming perturbed density to AO basis  ... done

 Raw HFC matrix (all values in MHz): 
 -----------------------------------
                 3.9855              -0.4417               0.1039
                -0.4398               1.7768               0.0293
                 0.1036               0.0288               0.5961

 A(FC)           2.1184               2.1184               2.1184
 A(SD)          -1.5272              -0.4250               1.9521
 A(ORB+DIA)      0.0001               0.0007               0.0023    A(PC) =   0.0011
 A(ORB)         -0.0001               0.0004               0.0021    A(PC) =   0.0008
 A(DIA)          0.0003               0.0004               0.0002    A(PC) =   0.0003
             ----------           ----------           ----------
 A(Tot)          0.5914               1.6942               4.0728    A(iso)=    2.1195
 Orientation: 
  X          -0.0355152            0.1871768           -0.9816840
  Y          -0.0380022            0.9813403            0.1884861
  Z           0.9986463            0.0440003           -0.0277394

Notes:  (1) The A matrix conforms to the "SAI" spin Hamiltonian convention.
        (2) Tensor is right-handed.

 -----------------------------------------------------------
 Nucleus  15H : A:ISTP=    1 I=  0.5 P=533.5514 MHz/au**3
                Q:ISTP=    2 I=  1.0 Q=  0.0029 barn     
 -----------------------------------------------------------
 Solving for nuclear perturbation:
Forming RHS of the CP-SCF equations         ... 
Calc. nucleus orbit integrals (SHARK)       ... done

------------------------------------------------------------------------------
                           ORCA CP-SCF CALCULATION
------------------------------------------------------------------------------

Input orbitals are from        ... EPRII_i.gbw
Input Perturbation             ... EPRII_i.pin.tmp
Wavefunction output            ... EPRII_i.pout.tmp
Perturbation mode              ... Imaginary perturbation
Solver                         ... POPLE
Max. number of iterations      ... 64
Convergence tolerance          ... 1.000e-03
Integral handling              ... Direct
DFT GridXC                     ... 1
COSX GridX                     ... 1
COSX IntAccX                   ... 3.067
COSX Algorithm                 ... Auto
Number of perturbations        ... 3
Number of operators            ... 2
Orbital ranges used for CP-SCF:
 Operator 0:  Orbitals   0... 36  to  37...246
 Operator 1:  Orbitals   0... 35  to  36...246
Variables per perturbation     ... 15366
DFT calculation                         ... on
XC functional terms                     ... off
Hybrid DFT                              ... on
   Exchange mixing (SCF)                ...  0.200
   Exchange mixing (CP-SCF)             ...  0.200
   GGA exch. scaling(SCF)               ...  0.720
   GGA exch. scaling (CP-SCF)           ...  0.720
   GGA corr. scaling (SCF)              ...  0.810
   GGA corr. scaling (CP-SCF)           ...  0.810

CP-SCF GRID
-----------

General Integration Accuracy     IntAcc      ... 3.467
Radial Grid Type                 RadialGrid  ... OptM3 with GC (2021)
Angular Grid (max. ang.)         AngularGrid ... 1 (Lebedev-50)
Angular grid pruning method      GridPruning ... 4 (adaptive)
Weight generation scheme         WeightScheme... Becke
Basis function cutoff            BFCut       ... 1.0000e-10
Integration weight cutoff        WCut        ... 1.0000e-14
Angular grids for H and He will be reduced by one unit
Partially contracted basis set               ... off
Rotationally invariant grid construction     ... off

Total number of grid points                  ...    13753
Total number of batches                      ...      226
Average number of points per batch           ...       60
Average number of grid points per atom       ...      655

CP-SCF GRIDX
------------

General Integration Accuracy     IntAcc      ... 3.067
Radial Grid Type                 RadialGrid  ... OptM3 with GC (2021)
Angular Grid (max. ang.)         AngularGrid ... 1 (Lebedev-50)
Angular grid pruning method      GridPruning ... 4 (adaptive)
Weight generation scheme         WeightScheme... Becke
Basis function cutoff            BFCut       ... 1.0000e-10
Integration weight cutoff        WCut        ... 1.0000e-14
Angular grids for H and He will be reduced by one unit
Partially contracted basis set               ... on
Rotationally invariant grid construction     ... off

Total number of grid points                  ...     6392
Total number of batches                      ...      113
Average number of points per batch           ...       56
Average number of grid points per atom       ...      304

Memory available               ... 948.4 MB
Memory needed per perturbation ...   3.7 MB
Perturbations treated per batch... 3
Number of batches              ... 1
     CP-SCF ITERATION   0:   6.0421e-02 (   0.4 sec   0/  3 done)
     CP-SCF ITERATION   1:   3.1062e-03 (   0.4 sec   0/  3 done)
     CP-SCF ITERATION   2:   1.9640e-04 (   0.4 sec   3/  3 done)
                    *** THE CP-SCF HAS CONVERGED ***

Forming final perturbed densities           ... done
Transforming perturbed density to AO basis  ... done

 Raw HFC matrix (all values in MHz): 
 -----------------------------------
               -40.5828             -19.2934              -0.7037
               -19.2898             -10.1413              19.4782
                -0.7016              19.4789             -20.0721

 A(FC)         -23.6060             -23.6060             -23.6060
 A(SD)          33.7178              -4.9993             -28.7185
 A(ORB+DIA)      0.0063              -0.0005               0.0160    A(PC) =   0.0073
 A(ORB)          0.0025               0.0009               0.0156    A(PC) =   0.0063
 A(DIA)          0.0038              -0.0014               0.0004    A(PC) =   0.0009
             ----------           ----------           ----------
 A(Tot)         10.1181             -28.6058             -52.3085    A(iso)=  -23.5987
 Orientation: 
  X          -0.3099894            0.4915909            0.8137844
  Y           0.7956156           -0.3344577            0.5051077
  Z           0.5204828            0.8040376           -0.2874390

Notes:  (1) The A matrix conforms to the "SAI" spin Hamiltonian convention.
        (2) Tensor is right-handed.

 -----------------------------------------------------------
 Nucleus  16H : A:ISTP=    1 I=  0.5 P=533.5514 MHz/au**3
                Q:ISTP=    2 I=  1.0 Q=  0.0029 barn     
 -----------------------------------------------------------
 Solving for nuclear perturbation:
Forming RHS of the CP-SCF equations         ... 
Calc. nucleus orbit integrals (SHARK)       ... done

------------------------------------------------------------------------------
                           ORCA CP-SCF CALCULATION
------------------------------------------------------------------------------

Input orbitals are from        ... EPRII_i.gbw
Input Perturbation             ... EPRII_i.pin.tmp
Wavefunction output            ... EPRII_i.pout.tmp
Perturbation mode              ... Imaginary perturbation
Solver                         ... POPLE
Max. number of iterations      ... 64
Convergence tolerance          ... 1.000e-03
Integral handling              ... Direct
DFT GridXC                     ... 1
COSX GridX                     ... 1
COSX IntAccX                   ... 3.067
COSX Algorithm                 ... Auto
Number of perturbations        ... 3
Number of operators            ... 2
Orbital ranges used for CP-SCF:
 Operator 0:  Orbitals   0... 36  to  37...246
 Operator 1:  Orbitals   0... 35  to  36...246
Variables per perturbation     ... 15366
DFT calculation                         ... on
XC functional terms                     ... off
Hybrid DFT                              ... on
   Exchange mixing (SCF)                ...  0.200
   Exchange mixing (CP-SCF)             ...  0.200
   GGA exch. scaling(SCF)               ...  0.720
   GGA exch. scaling (CP-SCF)           ...  0.720
   GGA corr. scaling (SCF)              ...  0.810
   GGA corr. scaling (CP-SCF)           ...  0.810

CP-SCF GRID
-----------

General Integration Accuracy     IntAcc      ... 3.467
Radial Grid Type                 RadialGrid  ... OptM3 with GC (2021)
Angular Grid (max. ang.)         AngularGrid ... 1 (Lebedev-50)
Angular grid pruning method      GridPruning ... 4 (adaptive)
Weight generation scheme         WeightScheme... Becke
Basis function cutoff            BFCut       ... 1.0000e-10
Integration weight cutoff        WCut        ... 1.0000e-14
Angular grids for H and He will be reduced by one unit
Partially contracted basis set               ... off
Rotationally invariant grid construction     ... off

Total number of grid points                  ...    13753
Total number of batches                      ...      226
Average number of points per batch           ...       60
Average number of grid points per atom       ...      655

CP-SCF GRIDX
------------

General Integration Accuracy     IntAcc      ... 3.067
Radial Grid Type                 RadialGrid  ... OptM3 with GC (2021)
Angular Grid (max. ang.)         AngularGrid ... 1 (Lebedev-50)
Angular grid pruning method      GridPruning ... 4 (adaptive)
Weight generation scheme         WeightScheme... Becke
Basis function cutoff            BFCut       ... 1.0000e-10
Integration weight cutoff        WCut        ... 1.0000e-14
Angular grids for H and He will be reduced by one unit
Partially contracted basis set               ... on
Rotationally invariant grid construction     ... off

Total number of grid points                  ...     6392
Total number of batches                      ...      113
Average number of points per batch           ...       56
Average number of grid points per atom       ...      304

Memory available               ... 948.1 MB
Memory needed per perturbation ...   3.7 MB
Perturbations treated per batch... 3
Number of batches              ... 1
     CP-SCF ITERATION   0:   5.8327e-02 (   0.4 sec   0/  3 done)
     CP-SCF ITERATION   1:   2.9215e-03 (   0.4 sec   0/  3 done)
     CP-SCF ITERATION   2:   1.8888e-04 (   0.4 sec   3/  3 done)
                    *** THE CP-SCF HAS CONVERGED ***

Forming final perturbed densities           ... done
Transforming perturbed density to AO basis  ... done

 Raw HFC matrix (all values in MHz): 
 -----------------------------------
               -39.4597              19.0816              -0.8290
                19.0773              -8.6874             -19.2928
                -0.8298             -19.2939             -19.0288

 A(FC)         -22.3989             -22.3989             -22.3989
 A(SD)          33.6052              -5.1662             -28.4390
 A(ORB+DIA)      0.0063              -0.0011               0.0156    A(PC) =   0.0070
 A(ORB)          0.0025               0.0004               0.0152    A(PC) =   0.0060
 A(DIA)          0.0038              -0.0015               0.0004    A(PC) =   0.0009
             ----------           ----------           ----------
 A(Tot)         11.2126             -27.5663             -50.8223    A(iso)=  -22.3920
 Orientation: 
  X          -0.3089712           -0.4837481            0.8188556
  Y          -0.7979707           -0.3366018           -0.4999421
  Z           0.5174743           -0.8078905           -0.2820166

Notes:  (1) The A matrix conforms to the "SAI" spin Hamiltonian convention.
        (2) Tensor is right-handed.

 -----------------------------------------------------------
 Nucleus  20H : A:ISTP=    1 I=  0.5 P=533.5514 MHz/au**3
                Q:ISTP=    2 I=  1.0 Q=  0.0029 barn     
 -----------------------------------------------------------
 Solving for nuclear perturbation:
Forming RHS of the CP-SCF equations         ... 
Calc. nucleus orbit integrals (SHARK)       ... done

------------------------------------------------------------------------------
                           ORCA CP-SCF CALCULATION
------------------------------------------------------------------------------

Input orbitals are from        ... EPRII_i.gbw
Input Perturbation             ... EPRII_i.pin.tmp
Wavefunction output            ... EPRII_i.pout.tmp
Perturbation mode              ... Imaginary perturbation
Solver                         ... POPLE
Max. number of iterations      ... 64
Convergence tolerance          ... 1.000e-03
Integral handling              ... Direct
DFT GridXC                     ... 1
COSX GridX                     ... 1
COSX IntAccX                   ... 3.067
COSX Algorithm                 ... Auto
Number of perturbations        ... 3
Number of operators            ... 2
Orbital ranges used for CP-SCF:
 Operator 0:  Orbitals   0... 36  to  37...246
 Operator 1:  Orbitals   0... 35  to  36...246
Variables per perturbation     ... 15366
DFT calculation                         ... on
XC functional terms                     ... off
Hybrid DFT                              ... on
   Exchange mixing (SCF)                ...  0.200
   Exchange mixing (CP-SCF)             ...  0.200
   GGA exch. scaling(SCF)               ...  0.720
   GGA exch. scaling (CP-SCF)           ...  0.720
   GGA corr. scaling (SCF)              ...  0.810
   GGA corr. scaling (CP-SCF)           ...  0.810

CP-SCF GRID
-----------

General Integration Accuracy     IntAcc      ... 3.467
Radial Grid Type                 RadialGrid  ... OptM3 with GC (2021)
Angular Grid (max. ang.)         AngularGrid ... 1 (Lebedev-50)
Angular grid pruning method      GridPruning ... 4 (adaptive)
Weight generation scheme         WeightScheme... Becke
Basis function cutoff            BFCut       ... 1.0000e-10
Integration weight cutoff        WCut        ... 1.0000e-14
Angular grids for H and He will be reduced by one unit
Partially contracted basis set               ... off
Rotationally invariant grid construction     ... off

Total number of grid points                  ...    13753
Total number of batches                      ...      226
Average number of points per batch           ...       60
Average number of grid points per atom       ...      655

CP-SCF GRIDX
------------

General Integration Accuracy     IntAcc      ... 3.067
Radial Grid Type                 RadialGrid  ... OptM3 with GC (2021)
Angular Grid (max. ang.)         AngularGrid ... 1 (Lebedev-50)
Angular grid pruning method      GridPruning ... 4 (adaptive)
Weight generation scheme         WeightScheme... Becke
Basis function cutoff            BFCut       ... 1.0000e-10
Integration weight cutoff        WCut        ... 1.0000e-14
Angular grids for H and He will be reduced by one unit
Partially contracted basis set               ... on
Rotationally invariant grid construction     ... off

Total number of grid points                  ...     6392
Total number of batches                      ...      113
Average number of points per batch           ...       56
Average number of grid points per atom       ...      304

Memory available               ... 947.9 MB
Memory needed per perturbation ...   3.7 MB
Perturbations treated per batch... 3
Number of batches              ... 1
     CP-SCF ITERATION   0:   4.3591e-02 (   0.4 sec   0/  3 done)
     CP-SCF ITERATION   1:   1.9418e-03 (   0.4 sec   0/  3 done)
     CP-SCF ITERATION   2:   1.1783e-04 (   0.4 sec   3/  3 done)
                    *** THE CP-SCF HAS CONVERGED ***

Forming final perturbed densities           ... done
Transforming perturbed density to AO basis  ... done

 Raw HFC matrix (all values in MHz): 
 -----------------------------------
                 4.5082               0.3660               0.0497
                 0.3639               2.2438              -0.1282
                 0.0499              -0.1279               1.1132

 A(FC)           2.6205               2.6205               2.6205
 A(SD)          -1.5242              -0.4190               1.9432
 A(ORB+DIA)      0.0001               0.0015               0.0021    A(PC) =   0.0013
 A(ORB)         -0.0001               0.0012               0.0020    A(PC) =   0.0010
 A(DIA)          0.0003               0.0004               0.0002    A(PC) =   0.0003
             ----------           ----------           ----------
 A(Tot)          1.0964               2.2030               4.5658    A(iso)=    2.6217
 Orientation: 
  X          -0.0272947           -0.1530366           -0.9878435
  Y           0.1196365            0.9806087           -0.1552214
  Z           0.9924425           -0.1224189           -0.0084567

Notes:  (1) The A matrix conforms to the "SAI" spin Hamiltonian convention.
        (2) Tensor is right-handed.


--------------------------------------------------------------------------------
----------------------------------------------------------------------------
                           ORCA EULER ANGLE PROGRAM
----------------------------------------------------------------------------

Only g-tensor available        -->  using g-tensor as reference tensor

Reference tensor               ...  g

g-tensor ordering              ...  |g_min> --> |gx>
                                    |g_mid> --> |gy>
                                    |g_max> --> |gz>

A- and EFG-tensor ordering     ...  the axes |Ax>, |Qx>, |Ay>, etc. are assigned
                                    such that the Euler rotation is minimal. You
                                    can find the respective eigenvalues as Ax,
                                    EFGx, Ay, etc. in the tables below.
                                    The relation of |Ax>, |Ay>,  etc. to Amin, Amid, etc.
                                    (as printed in the ORCA EPR/NMR CALCULATION Output)
                                    is obtained in the detailed printout.

Euler rotation around          ...  z - y - z
   First rotation              -->  by alpha around z
   Second rotation             -->  by beta around y'
   Third rotation              -->  by gamma around z''
   Positive / Negative angle   -->  clockwise / counterclockwise rotation

Plot EFG-tensors                    (-)
Plot HFC-tensors                    (-)
Detailed Printout                   (-)

-------------------------------------------------------------------------
          Euler rotation of hyperfine tensor to g-tensor
-------------------------------------------------------------------------

-------------------------------------------------------------------
 Atom  |   Alpha    Beta    Gamma   |   Ax       Ay       Az 
       |          [degrees]         |           [MHz]         
-------------------------------------------------------------------
  0N       -1.0      9.3     -7.8     212.86     4.71    10.23
 11H        1.7     31.0     -9.8      15.61    15.28    17.84
 12H       97.5     22.4    -98.1       3.14     3.28     5.58
 13H      -95.2     20.4     81.2       3.45     3.60     5.90
 14H      -40.0     15.5     35.6       0.59     1.69     4.07
 15H      131.3     32.0   -113.6     -28.61    10.12   -52.31
 16H     -131.0     31.0     97.9     -27.57    11.21   -50.82
 20H       34.6     13.8    -50.1       1.10     2.20     4.57
-------------------------------------------------------------------


Maximum memory used throughout the entire EPRNMR-calculation: 94.1 MB

Timings for individual modules:

Sum of individual times         ...      194.020 sec (=   3.234 min)
GTO integral calculation        ...        3.226 sec (=   0.054 min)   1.7 %
Spin-Orbit-Coupling Matrices    ...        4.828 sec (=   0.080 min)   2.5 %
SCF iterations                  ...       30.212 sec (=   0.504 min)  15.6 %
EPR/NMR calculation             ...      155.753 sec (=   2.596 min)  80.3 %
                             ****ORCA TERMINATED NORMALLY****
TOTAL RUN TIME: 0 days 0 hours 3 minutes 17 seconds 925 msec
