
                                 *****************
                                 * O   R   C   A *
                                 *****************

                                            #,                                       
                                            ###                                      
                                            ####                                     
                                            #####                                    
                                            ######                                   
                                           ########,                                 
                                     ,,################,,,,,                         
                               ,,#################################,,                 
                          ,,##########################################,,             
                       ,#########################################, ''#####,          
                    ,#############################################,,   '####,        
                  ,##################################################,,,,####,       
                ,###########''''           ''''###############################       
              ,#####''   ,,,,##########,,,,          '''####'''          '####       
            ,##' ,,,,###########################,,,                        '##       
           ' ,,###''''                  '''############,,,                           
         ,,##''                                '''############,,,,        ,,,,,,###''
      ,#''                                            '''#######################'''  
     '                                                          ''''####''''         
             ,#######,   #######,   ,#######,      ##                                
            ,#'     '#,  ##    ##  ,#'     '#,    #''#        ######   ,####,        
            ##       ##  ##   ,#'  ##            #'  '#       #        #'  '#        
            ##       ##  #######   ##           ,######,      #####,   #    #        
            '#,     ,#'  ##    ##  '#,     ,#' ,#      #,         ##   #,  ,#        
             '#######'   ##     ##  '#######'  #'      '#     #####' # '####'        



                  #######################################################
                  #                        -***-                        #
                  #          Department of theory and spectroscopy      #
                  #    Directorship and core code : Frank Neese         #
                  #        Max Planck Institute fuer Kohlenforschung    #
                  #                Kaiser Wilhelm Platz 1               #
                  #                 D-45470 Muelheim/Ruhr               #
                  #                      Germany                        #
                  #                                                     #
                  #                  All rights reserved                #
                  #                        -***-                        #
                  #######################################################


                         Program Version 5.0.4 -  RELEASE  -


 With contributions from (in alphabetic order):
   Daniel Aravena         : Magnetic Suceptibility
   Michael Atanasov       : Ab Initio Ligand Field Theory (pilot matlab implementation)
   Alexander A. Auer      : GIAO ZORA, VPT2 properties, NMR spectrum
   Ute Becker             : Parallelization
   Giovanni Bistoni       : ED, misc. LED, open-shell LED, HFLD
   Martin Brehm           : Molecular dynamics
   Dmytro Bykov           : SCF Hessian
   Vijay G. Chilkuri      : MRCI spin determinant printing, contributions to CSF-ICE
   Dipayan Datta          : RHF DLPNO-CCSD density
   Achintya Kumar Dutta   : EOM-CC, STEOM-CC
   Dmitry Ganyushin       : Spin-Orbit,Spin-Spin,Magnetic field MRCI
   Miquel Garcia          : C-PCM and meta-GGA Hessian, CC/C-PCM, Gaussian charge scheme
   Yang Guo               : DLPNO-NEVPT2, F12-NEVPT2, CIM, IAO-localization
   Andreas Hansen         : Spin unrestricted coupled pair/coupled cluster methods
   Benjamin Helmich-Paris : MC-RPA, TRAH-SCF, COSX integrals
   Lee Huntington         : MR-EOM, pCC
   Robert Izsak           : Overlap fitted RIJCOSX, COSX-SCS-MP3, EOM
   Marcus Kettner         : VPT2
   Christian Kollmar      : KDIIS, OOCD, Brueckner-CCSD(T), CCSD density, CASPT2, CASPT2-K
   Simone Kossmann        : Meta GGA functionals, TD-DFT gradient, OOMP2, MP2 Hessian
   Martin Krupicka        : Initial AUTO-CI
   Lucas Lang             : DCDCAS
   Marvin Lechner         : AUTO-CI (C++ implementation), FIC-MRCC
   Dagmar Lenk            : GEPOL surface, SMD
   Dimitrios Liakos       : Extrapolation schemes; Compound Job, initial MDCI parallelization
   Dimitrios Manganas     : Further ROCIS development; embedding schemes
   Dimitrios Pantazis     : SARC Basis sets
   Anastasios Papadopoulos: AUTO-CI, single reference methods and gradients
   Taras Petrenko         : DFT Hessian,TD-DFT gradient, ASA, ECA, R-Raman, ABS, FL, XAS/XES, NRVS
   Peter Pinski           : DLPNO-MP2, DLPNO-MP2 Gradient
   Christoph Reimann      : Effective Core Potentials
   Marius Retegan         : Local ZFS, SOC
   Christoph Riplinger    : Optimizer, TS searches, QM/MM, DLPNO-CCSD(T), (RO)-DLPNO pert. Triples
   Tobias Risthaus        : Range-separated hybrids, TD-DFT gradient, RPA, STAB
   Michael Roemelt        : Original ROCIS implementation
   Masaaki Saitow         : Open-shell DLPNO-CCSD energy and density
   Barbara Sandhoefer     : DKH picture change effects
   Avijit Sen             : IP-ROCIS
   Kantharuban Sivalingam : CASSCF convergence, NEVPT2, FIC-MRCI
   Bernardo de Souza      : ESD, SOC TD-DFT
   Georgi Stoychev        : AutoAux, RI-MP2 NMR, DLPNO-MP2 response
   Willem Van den Heuvel  : Paramagnetic NMR
   Boris Wezisla          : Elementary symmetry handling
   Frank Wennmohs         : Technical directorship


 We gratefully acknowledge several colleagues who have allowed us to
 interface, adapt or use parts of their codes:
   Stefan Grimme, W. Hujo, H. Kruse, P. Pracht,  : VdW corrections, initial TS optimization,
                  C. Bannwarth, S. Ehlert          DFT functionals, gCP, sTDA/sTD-DF
   Ed Valeev, F. Pavosevic, A. Kumar             : LibInt (2-el integral package), F12 methods
   Garnet Chan, S. Sharma, J. Yang, R. Olivares  : DMRG
   Ulf Ekstrom                                   : XCFun DFT Library
   Mihaly Kallay                                 : mrcc  (arbitrary order and MRCC methods)
   Jiri Pittner, Ondrej Demel                    : Mk-CCSD
   Frank Weinhold                                : gennbo (NPA and NBO analysis)
   Christopher J. Cramer and Donald G. Truhlar   : smd solvation model
   Lars Goerigk                                  : TD-DFT with DH, B97 family of functionals
   V. Asgeirsson, H. Jonsson                     : NEB implementation
   FAccTs GmbH                                   : IRC, NEB, NEB-TS, DLPNO-Multilevel, CI-OPT
                                                   MM, QMMM, 2- and 3-layer-ONIOM, Crystal-QMMM,
                                                   LR-CPCM, SF, NACMEs, symmetry and pop. for TD-DFT,
                                                   nearIR, NL-DFT gradient (VV10), updates on ESD,
                                                   ML-optimized integration grids
   S Lehtola, MJT Oliveira, MAL Marques          : LibXC Library
   Liviu Ungur et al                             : ANISO software


 Your calculation uses the libint2 library for the computation of 2-el integrals
 For citations please refer to: http://libint.valeyev.net

 Your ORCA version has been built with support for libXC version: 5.1.0
 For citations please refer to: https://tddft.org/programs/libxc/

 This ORCA versions uses:
   CBLAS   interface :  Fast vector & matrix operations
   LAPACKE interface :  Fast linear algebra routines
   SCALAPACK package :  Parallel linear algebra routines
   Shared memory     :  Shared parallel matrices
   BLAS/LAPACK       :  OpenBLAS 0.3.15  USE64BITINT DYNAMIC_ARCH NO_AFFINITY SkylakeX SINGLE_THREADED
        Core in use  :  SkylakeX
   Copyright (c) 2011-2014, The OpenBLAS Project




***************************************
The coordinates will be read from file: opt_EPRII.xyz
***************************************


XCFun DFT library Copyright 2009-2010 Ulf Ekstrom and contributors.
See http://admol.org/xcfun for more information.
This is free software; see the source code for copying conditions.
There is ABSOLUTELY NO WARRANTY; not even for MERCHANTABILITY or FITNESS FOR A PARTICULAR PURPOSE.
For details see the documentation.
Scientific users of this library should cite U. Ekstrom, L. Visscher, R. Bast, A. J. Thorvaldsen and K. Ruud;
J.Chem.Theor.Comp. 2010, DOI: 10.1021/ct100117s
XCFun Version 0.99 

================================================================================

----- Orbital basis set information -----
Your calculation utilizes the basis: def2-TZVP
   F. Weigend and R. Ahlrichs, Phys. Chem. Chem. Phys. 7, 3297 (2005).

----- AuxJ basis set information -----
Your calculation utilizes the auxiliary basis: def2/J
   F. Weigend, Phys. Chem. Chem. Phys. 8, 1057 (2006).

================================================================================
                                        WARNINGS
                       Please study these warnings very carefully!
================================================================================

WARNING: Old DensityContainer found on disk!
         Will remove this file - 
         If you want to keep old densities, please start your calculation with a different basename. 


WARNING: your system is open-shell and RHF/RKS was chosen
  ===> : WILL SWITCH to UHF/UKS


WARNING: Geometry Optimization
  ===> : Switching off AutoStart
         For restart on a previous wavefunction, please use MOREAD

WARNING: Minnesota functionals are quite sensitive to the integration grid.
         see SE Wheeler, KN Houk, JCTC 2010, 6, 395,
             N Mardirossian, M Head-Gordon, JCTC 2016, 12, 4303.
         DEFGRID3 seems to be a minimum grid for reliable results with these functionals!
  ===> : Please increase the integration grid!


INFO   : the flag for use of the SHARK integral package has been found!

================================================================================
                                       INPUT FILE
================================================================================
NAME = freq.inp
|  1> ! M062X def2-TZVP OPT FREQ
|  2> %pal nprocs 16 end
|  3> *XYZFile 1 2 opt_EPRII.xyz
|  4> 
|  5>                          ****END OF INPUT****
================================================================================

                       *****************************
                       * Geometry Optimization Run *
                       *****************************

Geometry optimization settings:
Update method            Update   .... BFGS
Choice of coordinates    CoordSys .... Z-matrix Internals
Initial Hessian          InHess   .... Almoef's Model

Convergence Tolerances:
Energy Change            TolE     ....  5.0000e-06 Eh
Max. Gradient            TolMAXG  ....  3.0000e-04 Eh/bohr
RMS Gradient             TolRMSG  ....  1.0000e-04 Eh/bohr
Max. Displacement        TolMAXD  ....  4.0000e-03 bohr
RMS Displacement         TolRMSD  ....  2.0000e-03 bohr
Strict Convergence                ....  False
------------------------------------------------------------------------------
                        ORCA OPTIMIZATION COORDINATE SETUP
------------------------------------------------------------------------------

The optimization will be done in new redundant internal coordinates
Making redundant internal coordinates   ...  (new redundants) done
Evaluating the initial hessian          ...  (Almloef) done
Evaluating the coordinates              ...  done
Calculating the B-matrix                .... done
Calculating the G-matrix                .... done
Diagonalizing the G-matrix              .... done
The first mode is                       ....   40
The number of degrees of freedom        ....   57

    -----------------------------------------------------------------
                    Redundant Internal Coordinates


    -----------------------------------------------------------------
         Definition                    Initial Value    Approx d2E/dq
    -----------------------------------------------------------------
      1. B(C   1,N   0)                  1.4651         0.424713   
      2. B(C   2,N   0)                  1.3181         0.728747   
      3. B(C   3,C   2)                  1.3875         0.630638   
      4. B(O   4,C   3)                  1.3591         0.626931   
      5. B(H   5,O   4)                  0.9670         0.506821   
      6. B(C   6,C   3)                  1.3910         0.622407   
      7. B(C   7,C   6)                  1.5069         0.406605   
      8. B(C   8,C   6)                  1.3857         0.634744   
      9. B(C   9,C   8)                  1.5070         0.406447   
     10. B(C  10,C   8)                  1.3821         0.643106   
     11. B(C  10,N   0)                  1.3188         0.726950   
     12. B(H  11,C   1)                  1.0900         0.360066   
     13. B(H  12,C   1)                  1.0900         0.360131   
     14. B(H  13,C   1)                  1.0900         0.360164   
     15. B(H  14,C   2)                  1.0800         0.373612   
     16. B(H  15,C   7)                  1.0900         0.360152   
     17. B(H  16,C   7)                  1.0900         0.360092   
     18. B(H  17,C   9)                  1.0900         0.360089   
     19. B(H  18,C   9)                  1.0899         0.360177   
     20. B(H  19,C   9)                  1.0900         0.360125   
     21. B(H  20,C  10)                  1.0800         0.373533   
     22. A(C   1,N   0,C   2)          119.1080         0.412165   
     23. A(C   2,N   0,C  10)          121.7828         0.453967   
     24. A(C   1,N   0,C  10)          119.1087         0.411985   
     25. A(N   0,C   1,H  12)          109.4714         0.329264   
     26. A(H  12,C   1,H  13)          109.4750         0.290851   
     27. A(H  11,C   1,H  12)          109.4708         0.290839   
     28. A(H  11,C   1,H  13)          109.4750         0.290843   
     29. A(N   0,C   1,H  11)          109.4642         0.329254   
     30. A(N   0,C   1,H  13)          109.4709         0.329268   
     31. A(C   3,C   2,H  14)          119.6612         0.356145   
     32. A(N   0,C   2,H  14)          119.6587         0.362761   
     33. A(N   0,C   2,C   3)          120.6801         0.445346   
     34. A(C   2,C   3,O   4)          120.4750         0.433413   
     35. A(O   4,C   3,C   6)          120.4720         0.432390   
     36. A(C   2,C   3,C   6)          119.0530         0.435701   
     37. A(C   3,O   4,H   5)          114.0067         0.369197   
     38. A(C   3,C   6,C   7)          120.8119         0.402916   
     39. A(C   7,C   6,C   8)          120.8166         0.404314   
     40. A(C   3,C   6,C   8)          118.3715         0.436211   
     41. A(H  15,C   7,H  16)          109.4681         0.290845   
     42. A(C   6,C   7,H  16)          109.4758         0.328874   
     43. A(C   6,C   7,H  15)          109.4703         0.328883   
     44. A(C   9,C   8,C  10)          120.3840         0.405221   
     45. A(C   6,C   8,C  10)          119.2267         0.438791   
     46. A(C   6,C   8,C   9)          120.3888         0.404286   
     47. A(C   8,C   9,H  19)          109.4678         0.328858   
     48. A(H  17,C   9,H  18)          109.4731         0.290848   
     49. A(C   8,C   9,H  18)          109.4721         0.328865   
     50. A(C   8,C   9,H  17)          109.4693         0.328852   
     51. A(H  17,C   9,H  19)          109.4691         0.290841   
     52. A(H  18,C   9,H  19)          109.4760         0.290852   
     53. A(N   0,C  10,C   8)          120.8842         0.446728   
     54. A(C   8,C  10,H  20)          119.5582         0.357319   
     55. A(N   0,C  10,H  20)          119.5561         0.362595   
     56. D(H  13,C   1,N   0,C   2)    -29.9962         0.015379   
     57. D(H  11,C   1,N   0,C  10)    -90.2720         0.015379   
     58. D(H  11,C   1,N   0,C   2)     90.0039         0.015379   
     59. D(H  13,C   1,N   0,C  10)    149.7279         0.015379   
     60. D(H  12,C   1,N   0,C   2)   -150.0008         0.015379   
     61. D(H  12,C   1,N   0,C  10)     29.7233         0.015379   
     62. D(C   3,C   2,N   0,C   1)    179.9962         0.044316   
     63. D(H  14,C   2,N   0,C  10)   -179.7399         0.044316   
     64. D(H  14,C   2,N   0,C   1)     -0.0235         0.044316   
     65. D(C   3,C   2,N   0,C  10)      0.2798         0.044316   
     66. D(C   6,C   3,C   2,H  14)    179.9961         0.027579   
     67. D(C   6,C   3,C   2,N   0)     -0.0236         0.027579   
     68. D(O   4,C   3,C   2,H  14)      0.0227         0.027579   
     69. D(O   4,C   3,C   2,N   0)   -179.9970         0.027579   
     70. D(H   5,O   4,C   3,C   2)     90.0004         0.028884   
     71. D(H   5,O   4,C   3,C   6)    -89.9726         0.028884   
     72. D(C   8,C   6,C   3,O   4)    179.9778         0.026819   
     73. D(C   8,C   6,C   3,C   2)      0.0044         0.026819   
     74. D(C   7,C   6,C   3,O   4)     -0.0054         0.026819   
     75. D(C   7,C   6,C   3,C   2)   -179.9788         0.026819   
     76. D(H  16,C   7,C   6,C   8)    150.0170         0.011348   
     77. D(H  16,C   7,C   6,C   3)    -30.0002         0.011348   
     78. D(H  15,C   7,C   6,C   8)     30.0186         0.011348   
     79. D(H  15,C   7,C   6,C   3)   -149.9986         0.011348   
     80. D(C  10,C   8,C   6,C   7)    179.7596         0.027962   
     81. D(C  10,C   8,C   6,C   3)     -0.2236         0.027962   
     82. D(C   9,C   8,C   6,C   7)      0.0030         0.027962   
     83. D(C   9,C   8,C   6,C   3)   -179.9802         0.027962   
     84. D(H  18,C   9,C   8,C   6)   -150.0034         0.012243   
     85. D(H  17,C   9,C   8,C  10)    -89.7588         0.012243   
     86. D(H  17,C   9,C   8,C   6)     89.9949         0.012243   
     87. D(H  19,C   9,C   8,C  10)    150.2471         0.012243   
     88. D(H  19,C   9,C   8,C   6)    -29.9992         0.012243   
     89. D(H  18,C   9,C   8,C  10)     30.2429         0.012243   
     90. D(H  20,C  10,C   8,C   9)     -0.2189         0.028754   
     91. D(H  20,C  10,C   8,C   6)   -179.9755         0.028754   
     92. D(N   0,C  10,C   8,C   9)   -179.7646         0.028754   
     93. D(N   0,C  10,C   8,C   6)      0.4787         0.028754   
     94. D(H  20,C  10,N   0,C   2)    179.9432         0.044075   
     95. D(H  20,C  10,N   0,C   1)      0.2267         0.044075   
     96. D(C   8,C  10,N   0,C   2)     -0.5111         0.044075   
     97. D(C   8,C  10,N   0,C   1)    179.7725         0.044075   
    -----------------------------------------------------------------

Number of atoms                         .... 21
Number of degrees of freedom            .... 97

         *************************************************************
         *                GEOMETRY OPTIMIZATION CYCLE   1            *
         *************************************************************
---------------------------------
CARTESIAN COORDINATES (ANGSTROEM)
---------------------------------
  N     -1.639000   -0.028000   -0.002500
  C     -3.104000   -0.042300    0.001900
  C     -1.009100    1.129800   -0.013900
  C      0.377400    1.181400   -0.018300
  O      1.022600    2.377500   -0.030000
  H      1.211900    2.731000    0.849900
  C      1.097700   -0.008600   -0.010000
  C      2.604600    0.001200   -0.013900
  C      0.395600   -1.203200    0.002300
  C      1.130100   -2.519100    0.012100
  C     -0.986200   -1.173800    0.010600
  H     -3.470200   -0.054400   -1.024700
  H     -3.457100   -0.931500    0.524100
  H     -3.474500    0.848300    0.509400
  H     -1.578100    2.047700   -0.020200
  H      2.972400   -0.890700   -0.521100
  H      2.960900    0.889100   -0.536200
  H      1.309800   -2.827200    1.042100
  H      0.528800   -3.274600   -0.493500
  H      2.083000   -2.407100   -0.505100
  H     -1.538800   -2.101700    0.020600

----------------------------
CARTESIAN COORDINATES (A.U.)
----------------------------
  NO LB      ZA    FRAG     MASS         X           Y           Z
   0 N     7.0000    0    14.007   -3.097261   -0.052912   -0.004724
   1 C     6.0000    0    12.011   -5.865710   -0.079935    0.003590
   2 C     6.0000    0    12.011   -1.906923    2.135013   -0.026267
   3 C     6.0000    0    12.011    0.713183    2.232522   -0.034582
   4 O     8.0000    0    15.999    1.932434    4.492824   -0.056692
   5 H     1.0000    0     1.008    2.290159    5.160842    1.606078
   6 C     6.0000    0    12.011    2.074352   -0.016252   -0.018897
   7 C     6.0000    0    12.011    4.921981    0.002268   -0.026267
   8 C     6.0000    0    12.011    0.747576   -2.273718    0.004346
   9 C     6.0000    0    12.011    2.135580   -4.760409    0.022866
  10 C     6.0000    0    12.011   -1.863648   -2.218161    0.020031
  11 H     1.0000    0     1.008   -6.557728   -0.102801   -1.936402
  12 H     1.0000    0     1.008   -6.532972   -1.760280    0.990405
  13 H     1.0000    0     1.008   -6.565853    1.603055    0.962626
  14 H     1.0000    0     1.008   -2.982177    3.869592   -0.038172
  15 H     1.0000    0     1.008    5.617022   -1.683179   -0.984736
  16 H     1.0000    0     1.008    5.595290    1.680156   -1.013271
  17 H     1.0000    0     1.008    2.475163   -5.342634    1.969284
  18 H     1.0000    0     1.008    0.999287   -6.188097   -0.932580
  19 H     1.0000    0     1.008    3.936300   -4.548760   -0.954501
  20 H     1.0000    0     1.008   -2.907911   -3.971637    0.038928

--------------------------------
INTERNAL COORDINATES (ANGSTROEM)
--------------------------------
 N      0   0   0     0.000000000000     0.00000000     0.00000000
 C      1   0   0     1.465076397325     0.00000000     0.00000000
 C      1   2   0     1.318106524527   119.10797765     0.00000000
 C      3   1   2     1.387466817621   120.68008137   179.99623036
 O      4   3   1     1.359071425643   120.47503414   180.00299587
 H      5   4   3     0.966964709801   114.00668708    90.00037406
 C      4   3   1     1.391043126578   119.05296922   359.97637115
 C      7   4   3     1.506936913079   120.81190682   180.02122456
 C      7   4   3     1.385700133507   118.37145526     0.00000000
 C      9   7   4     1.507043164611   120.38876869   180.01979887
 C      1   2   3     1.318778635708   119.10866356   179.72411720
 H      2   1   3     1.090025875840   109.46419075    90.00390716
 H      2   1   3     1.089976646539   109.47141296   209.99920244
 H      2   1   3     1.089951769575   109.47093075   330.00378798
 H      3   1   2     1.079972731137   119.65869762   359.97650754
 H      8   7   4     1.089960682777   109.47028151   210.00135149
 H      8   7   4     1.090006142185   109.47578485   329.99975177
 H     10   9   7     1.090008119236   109.46934666    89.99493152
 H     10   9   7     1.089941879184   109.47206789   209.99661413
 H     10   9   7     1.089980848456   109.46775394   330.00084856
 H     11   1   2     1.080030170875   119.55605401     0.22674066

---------------------------
INTERNAL COORDINATES (A.U.)
---------------------------
 N      0   0   0     0.000000000000     0.00000000     0.00000000
 C      1   0   0     2.768593156217     0.00000000     0.00000000
 C      1   2   0     2.490860346690   119.10797765     0.00000000
 C      3   1   2     2.621932305207   120.68008137   179.99623036
 O      4   3   1     2.568272790904   120.47503414   180.00299587
 H      5   4   3     1.827298482690   114.00668708    90.00037406
 C      4   3   1     2.628690549706   119.05296922   359.97637115
 C      7   4   3     2.847698066816   120.81190682   180.02122456
 C      7   4   3     2.618593756065   118.37145526     0.00000000
 C      9   7   4     2.847898853112   120.38876869   180.01979887
 C      1   2   3     2.492130452755   119.10866356   179.72411720
 H      2   1   3     2.059850384225   109.46419075    90.00390716
 H      2   1   3     2.059757354328   109.47141296   209.99920244
 H      2   1   3     2.059710343680   109.47093075   330.00378798
 H      3   1   2     2.040852693952   119.65869762   359.97650754
 H      8   7   4     2.059727187191   109.47028151   210.00135149
 H      8   7   4     2.059813093021   109.47578485   329.99975177
 H     10   9   7     2.059816829106   109.46934666    89.99493152
 H     10   9   7     2.059691653550   109.47206789   209.99661413
 H     10   9   7     2.059765294800   109.46775394   330.00084856
 H     11   1   2     2.040961239326   119.55605401     0.22674066

---------------------
BASIS SET INFORMATION
---------------------
There are 4 groups of distinct atoms

 Group   1 Type N   : 11s6p2d1f contracted to 5s3p2d1f pattern {62111/411/11/1}
 Group   2 Type C   : 11s6p2d1f contracted to 5s3p2d1f pattern {62111/411/11/1}
 Group   3 Type O   : 11s6p2d1f contracted to 5s3p2d1f pattern {62111/411/11/1}
 Group   4 Type H   : 5s1p contracted to 3s1p pattern {311/1}

Atom   0N    basis set group =>   1
Atom   1C    basis set group =>   2
Atom   2C    basis set group =>   2
Atom   3C    basis set group =>   2
Atom   4O    basis set group =>   3
Atom   5H    basis set group =>   4
Atom   6C    basis set group =>   2
Atom   7C    basis set group =>   2
Atom   8C    basis set group =>   2
Atom   9C    basis set group =>   2
Atom  10C    basis set group =>   2
Atom  11H    basis set group =>   4
Atom  12H    basis set group =>   4
Atom  13H    basis set group =>   4
Atom  14H    basis set group =>   4
Atom  15H    basis set group =>   4
Atom  16H    basis set group =>   4
Atom  17H    basis set group =>   4
Atom  18H    basis set group =>   4
Atom  19H    basis set group =>   4
Atom  20H    basis set group =>   4
---------------------------------
AUXILIARY/J BASIS SET INFORMATION
---------------------------------
There are 4 groups of distinct atoms

 Group   1 Type N   : 12s5p4d2f1g contracted to 6s4p3d1f1g pattern {711111/2111/211/2/1}
 Group   2 Type C   : 12s5p4d2f1g contracted to 6s4p3d1f1g pattern {711111/2111/211/2/1}
 Group   3 Type O   : 12s5p4d2f1g contracted to 6s4p3d1f1g pattern {711111/2111/211/2/1}
 Group   4 Type H   : 5s2p1d contracted to 3s1p1d pattern {311/2/1}

Atom   0N    basis set group =>   1
Atom   1C    basis set group =>   2
Atom   2C    basis set group =>   2
Atom   3C    basis set group =>   2
Atom   4O    basis set group =>   3
Atom   5H    basis set group =>   4
Atom   6C    basis set group =>   2
Atom   7C    basis set group =>   2
Atom   8C    basis set group =>   2
Atom   9C    basis set group =>   2
Atom  10C    basis set group =>   2
Atom  11H    basis set group =>   4
Atom  12H    basis set group =>   4
Atom  13H    basis set group =>   4
Atom  14H    basis set group =>   4
Atom  15H    basis set group =>   4
Atom  16H    basis set group =>   4
Atom  17H    basis set group =>   4
Atom  18H    basis set group =>   4
Atom  19H    basis set group =>   4
Atom  20H    basis set group =>   4


           ************************************************************
           *        Program running with 16 parallel MPI-processes    *
           *              working on a common directory               *
           ************************************************************
------------------------------------------------------------------------------
                           ORCA GTO INTEGRAL CALCULATION
                           -- RI-GTO INTEGRALS CHOSEN --
------------------------------------------------------------------------------
------------------------------------------------------------------------------
                   ___                                                        
                  /   \      - P O W E R E D   B Y -                         
                 /     \                                                     
                 |  |  |   _    _      __       _____    __    __             
                 |  |  |  | |  | |    /  \     |  _  \  |  |  /  |          
                  \  \/   | |  | |   /    \    | | | |  |  | /  /          
                 / \  \   | |__| |  /  /\  \   | |_| |  |  |/  /          
                |  |  |   |  __  | /  /__\  \  |    /   |      \           
                |  |  |   | |  | | |   __   |  |    \   |  |\   \          
                \     /   | |  | | |  |  |  |  | |\  \  |  | \   \       
                 \___/    |_|  |_| |__|  |__|  |_| \__\ |__|  \__/        
                                                                              
                      - O R C A' S   B I G   F R I E N D -                    
                                      &                                       
                       - I N T E G R A L  F E E D E R -                       
                                                                              
 v1 FN, 2020, v2 2021                                                         
------------------------------------------------------------------------------


Reading SHARK input file freq.SHARKINP.tmp ... ok
----------------------
SHARK INTEGRAL PACKAGE
----------------------

Number of atoms                             ...     21
Number of basis functions                   ...    376
Number of shells                            ...    154
Maximum angular momentum                    ...      3
Integral batch strategy                     ... SHARK/LIBINT Hybrid
RI-J (if used) integral strategy            ... SPLIT-RIJ (Revised 2003 algorithm where possible)
Printlevel                                  ...      1
Contraction scheme used                     ... SEGMENTED contraction
Coulomb Range Separation                    ... NOT USED
Exchange Range Separation                   ... NOT USED
Finite Nucleus Model                        ... NOT USED
Auxiliary Coulomb fitting basis             ... AVAILABLE
   # of basis functions in Aux-J            ...    611
   # of shells in Aux-J                     ...    205
   Maximum angular momentum in Aux-J        ...      4
Auxiliary J/K fitting basis                 ... NOT available
Auxiliary Correlation fitting basis         ... NOT available
Auxiliary 'external' fitting basis          ... NOT available
Integral threshold                          ...     2.500000e-11
Primitive cut-off                           ...     2.500000e-12
Primitive pair pre-selection threshold      ...     2.500000e-12

Calculating pre-screening integrals         ... done (  0.1 sec) Dimension = 154
Organizing shell pair data                  ... done (  0.1 sec)
Shell pair information
Total number of shell pairs                 ...     11935
Shell pairs after pre-screening             ...     10535
Total number of primitive shell pairs       ...     35764
Primitive shell pairs kept                  ...     23216
          la=0 lb=0:   2943 shell pairs
          la=1 lb=0:   3011 shell pairs
          la=1 lb=1:    787 shell pairs
          la=2 lb=0:   1492 shell pairs
          la=2 lb=1:    761 shell pairs
          la=2 lb=2:    199 shell pairs
          la=3 lb=0:    721 shell pairs
          la=3 lb=1:    380 shell pairs
          la=3 lb=2:    189 shell pairs
          la=3 lb=3:     52 shell pairs

Calculating one electron integrals          ... done (  0.0 sec)
Calculating RI/J V-Matrix + Cholesky decomp.... done (  0.1 sec)
Calculating Nuclear repulsion               ... done (  0.0 sec) ENN=    526.032636281795 Eh

SHARK setup successfully completed in   0.5 seconds

Maximum memory used throughout the entire GTOINT-calculation: 23.5 MB


           ************************************************************
           *        Program running with 16 parallel MPI-processes    *
           *              working on a common directory               *
           ************************************************************
-------------------------------------------------------------------------------
                                 ORCA SCF
-------------------------------------------------------------------------------

------------
SCF SETTINGS
------------
Hamiltonian:
 Density Functional     Method          .... DFT(GTOs)
 Exchange Functional    Exchange        .... M062X
 Correlation Functional Correlation     .... M062X
 Gradients option       PostSCFGGA      .... off
 Hybrid DFT is turned on
   Fraction HF Exchange ScalHFX         ....  0.540000
   Scaling of DF-GGA-X  ScalDFX         ....  0.460000
   Scaling of DF-GGA-C  ScalDFC         ....  1.000000
   Scaling of DF-LDA-C  ScalLDAC        ....  1.000000
   Perturbative correction              ....  0.000000
   Density functional embedding theory  .... OFF
 RI-approximation to the Coulomb term is turned on
   Number of AuxJ basis functions       .... 611
   RIJ-COSX (HFX calculated with COS-X)).... on


General Settings:
 Integral files         IntName         .... freq
 Hartree-Fock type      HFTyp           .... UHF
 Total Charge           Charge          ....    1
 Multiplicity           Mult            ....    2
 Number of Electrons    NEL             ....   73
 Basis Dimension        Dim             ....  376
 Nuclear Repulsion      ENuc            ....    526.0326362818 Eh

Convergence Acceleration:
 DIIS                   CNVDIIS         .... on
   Start iteration      DIISMaxIt       ....    12
   Startup error        DIISStart       ....  0.200000
   # of expansion vecs  DIISMaxEq       ....     5
   Bias factor          DIISBfac        ....   1.050
   Max. coefficient     DIISMaxC        ....  10.000
 Trust-Rad. Augm. Hess. CNVTRAH         .... auto
   Auto Start mean grad. ratio tolernc. ....  1.125000
   Auto Start start iteration           ....    20
   Auto Start num. interpolation iter.  ....    10
   Max. Number of Micro iterations      ....    16
   Max. Number of Macro iterations      .... Maxiter - #DIIS iter
   Number of Davidson start vectors     ....     2
   Converg. threshold I  (grad. norm)   ....   1.000e-05
   Converg. threshold II (energy diff.) ....   1.000e-08
   Grad. Scal. Fac. for Micro threshold ....   0.100
   Minimum threshold for Micro iter.    ....   0.010
   NR start threshold (gradient norm)   ....   0.001
   Initial trust radius                 ....   0.400
   Minimum AH scaling param. (alpha)    ....   1.000
   Maximum AH scaling param. (alpha)    .... 1000.000
   Orbital update algorithm             .... Taylor
   White noise on init. David. guess    .... on
   Maximum white noise                  ....   0.010
   Quad. conv. algorithm                .... NR
 SOSCF                  CNVSOSCF        .... off
 Level Shifting         CNVShift        .... on
   Level shift para.    LevelShift      ....    0.2500
   Turn off err/grad.   ShiftErr        ....    0.0010
 Zerner damping         CNVZerner       .... off
 Static damping         CNVDamp         .... on
   Fraction old density DampFac         ....    0.7000
   Max. Damping (<1)    DampMax         ....    0.9800
   Min. Damping (>=0)   DampMin         ....    0.0000
   Turn off err/grad.   DampErr         ....    0.1000
 Fernandez-Rico         CNVRico         .... off

SCF Procedure:
 Maximum # iterations   MaxIter         ....   125
 SCF integral mode      SCFMode         .... Direct
   Integral package                     .... SHARK and LIBINT hybrid scheme
 Reset frequency        DirectResetFreq ....    20
 Integral Threshold     Thresh          ....  2.500e-11 Eh
 Primitive CutOff       TCut            ....  2.500e-12 Eh

Convergence Tolerance:
 Convergence Check Mode ConvCheckMode   .... Total+1el-Energy
 Convergence forced     ConvForced      .... 0
 Energy Change          TolE            ....  1.000e-08 Eh
 1-El. energy change                    ....  1.000e-05 Eh
 DIIS Error             TolErr          ....  5.000e-07


Diagonalization of the overlap matrix:
Smallest eigenvalue                        ... 3.242e-05
Time for diagonalization                   ...    0.027 sec
Threshold for overlap eigenvalues          ... 1.000e-08
Number of eigenvalues below threshold      ... 0
Time for construction of square roots      ...    0.037 sec
Total time needed                          ...    0.065 sec

Time for model grid setup =    0.123 sec

------------------------------
INITIAL GUESS: MODEL POTENTIAL
------------------------------
Loading Hartree-Fock densities                     ... done
Calculating cut-offs                               ... done
Initializing the effective Hamiltonian             ... done
Setting up the integral package (SHARK)            ... done
Starting the Coulomb interaction                   ... done (   0.2 sec)
Reading the grid                                   ... done
Mapping shells                                     ... done
Starting the XC term evaluation                    ... done (   0.1 sec)
  promolecular density results
     # of electrons  =     73.990194922
     EX              =    -58.917905353
     EC              =     -2.464075622
     EX+EC           =    -61.381980975
Transforming the Hamiltonian                       ... done (   0.0 sec)
Diagonalizing the Hamiltonian                      ... done (   0.0 sec)
Back transforming the eigenvectors                 ... done (   0.0 sec)
Now organizing SCF variables                       ... done
                      ------------------
                      INITIAL GUESS DONE (   0.5 sec)
                      ------------------
-------------------
DFT GRID GENERATION
-------------------

General Integration Accuracy     IntAcc      ... 4.388
Radial Grid Type                 RadialGrid  ... OptM3 with GC (2021)
Angular Grid (max. ang.)         AngularGrid ... 4 (Lebedev-302)
Angular grid pruning method      GridPruning ... 4 (adaptive)
Weight generation scheme         WeightScheme... Becke
Basis function cutoff            BFCut       ... 1.0000e-11
Integration weight cutoff        WCut        ... 1.0000e-14
Angular grids for H and He will be reduced by one unit
Partially contracted basis set               ... off
Rotationally invariant grid construction     ... off

Total number of grid points                  ...    95274
Total number of batches                      ...     1498
Average number of points per batch           ...       63
Average number of grid points per atom       ...     4537
Time for grid setup =    0.500 sec

--------------------
COSX GRID GENERATION
--------------------

GRIDX 1
-------
General Integration Accuracy     IntAcc      ... 3.816
Radial Grid Type                 RadialGrid  ... OptM3 with GC (2021)
Angular Grid (max. ang.)         AngularGrid ... 1 (Lebedev-50)
Angular grid pruning method      GridPruning ... 4 (adaptive)
Weight generation scheme         WeightScheme... Becke
Basis function cutoff            BFCut       ... 1.0000e-11
Integration weight cutoff        WCut        ... 1.0000e-14
Angular grids for H and He will be reduced by one unit
Partially contracted basis set               ... on
Rotationally invariant grid construction     ... off

Total number of grid points                  ...    12233
Total number of batches                      ...      201
Average number of points per batch           ...       60
Average number of grid points per atom       ...      583
UseSFitting                                  ... on

GRIDX 2
-------
General Integration Accuracy     IntAcc      ... 4.020
Radial Grid Type                 RadialGrid  ... OptM3 with GC (2021)
Angular Grid (max. ang.)         AngularGrid ... 2 (Lebedev-110)
Angular grid pruning method      GridPruning ... 4 (adaptive)
Weight generation scheme         WeightScheme... Becke
Basis function cutoff            BFCut       ... 1.0000e-11
Integration weight cutoff        WCut        ... 1.0000e-14
Angular grids for H and He will be reduced by one unit
Partially contracted basis set               ... on
Rotationally invariant grid construction     ... off

Total number of grid points                  ...    26091
Total number of batches                      ...      417
Average number of points per batch           ...       62
Average number of grid points per atom       ...     1242
UseSFitting                                  ... on

GRIDX 3
-------
General Integration Accuracy     IntAcc      ... 4.338
Radial Grid Type                 RadialGrid  ... OptM3 with GC (2021)
Angular Grid (max. ang.)         AngularGrid ... 3 (Lebedev-194)
Angular grid pruning method      GridPruning ... 4 (adaptive)
Weight generation scheme         WeightScheme... Becke
Basis function cutoff            BFCut       ... 1.0000e-11
Integration weight cutoff        WCut        ... 1.0000e-14
Angular grids for H and He will be reduced by one unit
Partially contracted basis set               ... on
Rotationally invariant grid construction     ... off

Total number of grid points                  ...    57234
Total number of batches                      ...      904
Average number of points per batch           ...       63
Average number of grid points per atom       ...     2725
UseSFitting                                  ... on

Time for X-Grid setup             =    1.060 sec

--------------
SCF ITERATIONS
--------------
ITER       Energy         Delta-E        Max-DP      RMS-DP      [F,P]     Damp
               ***  Starting incremental Fock matrix formation  ***
  0   -440.9141196007   0.000000000000 0.03802937  0.00051240  0.1172876 0.7000
  1   -440.9937894153  -0.079669814647 0.03745623  0.00044511  0.0588718 0.7000
                               ***Turning on DIIS***
  2   -441.0339926680  -0.040203252659 0.06720523  0.00094137  0.0257657 0.0000
  3   -441.1020808406  -0.068088172670 0.02884955  0.00028036  0.0258300 0.0000
  4   -441.1125601515  -0.010479310885 0.00493348  0.00007770  0.0073099 0.0000
  5   -441.1134950647  -0.000934913191 0.00570216  0.00005424  0.0054472 0.0000
  6   -441.1139706436  -0.000475578878 0.00631323  0.00004654  0.0037763 0.0000
  7   -441.1142612253  -0.000290581740 0.00269859  0.00002437  0.0020471 0.0000
  8   -441.1143680373  -0.000106811922 0.00111741  0.00001314  0.0010910 0.0000
  9   -441.1144037612  -0.000035723944 0.00092550  0.00001398  0.0005395 0.0000
               *** Restarting incremental Fock matrix formation ***
                                   *** Resetting DIIS ***
 10   -441.1144136620  -0.000009900780 0.00067575  0.00000995  0.0002163 0.0000
 11   -441.1144161285  -0.000002466560 0.00024593  0.00000221  0.0001603 0.0000
 12   -441.1144169303  -0.000000801704 0.00017446  0.00000284  0.0001060 0.0000
 13   -441.1144177262  -0.000000795963 0.00009036  0.00000118  0.0000470 0.0000
 14   -441.1144178760  -0.000000149828 0.00003921  0.00000055  0.0000281 0.0000
 15   -441.1144179142  -0.000000038194 0.00001249  0.00000019  0.0000109 0.0000
 16   -441.1144179195  -0.000000005221 0.00000719  0.00000012  0.0000075 0.0000
 17   -441.1144179160   0.000000003433 0.00000491  0.00000007  0.0000038 0.0000
 18   -441.1144179086   0.000000007412 0.00000257  0.00000004  0.0000021 0.0000
                 **** Energy Check signals convergence ****

               *****************************************************
               *                     SUCCESS                       *
               *           SCF CONVERGED AFTER  19 CYCLES          *
               *****************************************************

Old exchange energy                            =    -32.435538281 Eh
New exchange energy                            =    -32.435517863 Eh
Exchange energy change after final integration =      0.000020418 Eh
Total energy after final integration           =   -441.114397490 Eh
Final COS-X integration done in                =     3.565 sec

----------------
TOTAL SCF ENERGY
----------------

Total Energy       :         -441.11439749 Eh          -12003.33299 eV

Components:
Nuclear Repulsion  :          526.03263628 Eh           14314.07575 eV
Electronic Energy  :         -967.14703377 Eh          -26317.40874 eV
One Electron Energy:        -1626.07749339 Eh          -44247.81811 eV
Two Electron Energy:          658.93045962 Eh           17930.40937 eV
Max COSX asymmetry :            0.00000241 Eh               0.00007 eV

Virial components:
Potential Energy   :         -880.23110251 Eh          -23952.30601 eV
Kinetic Energy     :          439.11670502 Eh           11948.97302 eV
Virial Ratio       :            2.00454934


DFT components:
N(Alpha)           :       36.999995280681 electrons
N(Beta)            :       36.000003101988 electrons
N(Total)           :       72.999998382669 electrons
E(XC)              :      -30.235865886156 Eh       
DFET-embed. en.    :        0.000000000000 Eh       

---------------
SCF CONVERGENCE
---------------

  Last Energy change         ...   -6.2528e-11  Tolerance :   1.0000e-08
  Last MAX-Density change    ...    0.0000e+00  Tolerance :   1.0000e-07
  Last RMS-Density change    ...    0.0000e+00  Tolerance :   5.0000e-09
  Last DIIS Error            ...    9.8090e-07  Tolerance :   5.0000e-07

             **** THE GBW FILE WAS UPDATED (freq.gbw) ****
             **** DENSITY freq.scfp WAS UPDATED ****
             **** ENERGY FILE WAS UPDATED (freq.en.tmp) ****
----------------------
UHF SPIN CONTAMINATION
----------------------

Warning: in a DFT calculation there is little theoretical justification to 
         calculate <S**2> as in Hartree-Fock theory. We will do it anyways
         but you should keep in mind that the values have only limited relevance

Expectation value of <S**2>     :     0.765299
Ideal value S*(S+1) for S=0.5   :     0.750000
Deviation                       :     0.015299

             **** THE GBW FILE WAS UPDATED (freq.gbw) ****
             **** DENSITY freq.scfp WAS UPDATED ****
----------------
ORBITAL ENERGIES
----------------
                 SPIN UP ORBITALS
  NO   OCC          E(Eh)            E(eV) 
   0   1.0000     -19.806567      -538.9641 
   1   1.0000     -15.028200      -408.9381 
   2   1.0000     -10.788399      -293.5673 
   3   1.0000     -10.770510      -293.0805 
   4   1.0000     -10.768829      -293.0347 
   5   1.0000     -10.749757      -292.5157 
   6   1.0000     -10.738987      -292.2227 
   7   1.0000     -10.736715      -292.1609 
   8   1.0000     -10.721028      -291.7340 
   9   1.0000     -10.684070      -290.7283 
  10   1.0000      -1.346000       -36.6265 
  11   1.0000      -1.322044       -35.9746 
  12   1.0000      -1.127388       -30.6778 
  13   1.0000      -1.069602       -29.1054 
  14   1.0000      -1.020341       -27.7649 
  15   1.0000      -0.982283       -26.7293 
  16   1.0000      -0.946375       -25.7522 
  17   1.0000      -0.892961       -24.2987 
  18   1.0000      -0.860749       -23.4222 
  19   1.0000      -0.804773       -21.8990 
  20   1.0000      -0.786145       -21.3921 
  21   1.0000      -0.770734       -20.9727 
  22   1.0000      -0.744237       -20.2517 
  23   1.0000      -0.699397       -19.0315 
  24   1.0000      -0.685076       -18.6419 
  25   1.0000      -0.678253       -18.4562 
  26   1.0000      -0.659597       -17.9486 
  27   1.0000      -0.649336       -17.6693 
  28   1.0000      -0.638754       -17.3814 
  29   1.0000      -0.618009       -16.8169 
  30   1.0000      -0.614546       -16.7227 
  31   1.0000      -0.597146       -16.2492 
  32   1.0000      -0.585278       -15.9262 
  33   1.0000      -0.555512       -15.1162 
  34   1.0000      -0.543273       -14.7832 
  35   1.0000      -0.492586       -13.4040 
  36   1.0000      -0.447239       -12.1700 
  37   0.0000      -0.181163        -4.9297 
  38   0.0000      -0.163313        -4.4440 
  39   0.0000      -0.080426        -2.1885 
  40   0.0000      -0.073496        -1.9999 
  41   0.0000      -0.049224        -1.3394 
  42   0.0000      -0.044594        -1.2135 
  43   0.0000      -0.033268        -0.9053 
  44   0.0000      -0.026873        -0.7313 
  45   0.0000      -0.015649        -0.4258 
  46   0.0000      -0.004541        -0.1236 
  47   0.0000       0.006996         0.1904 
  48   0.0000       0.016570         0.4509 
  49   0.0000       0.020133         0.5479 
  50   0.0000       0.025969         0.7066 
  51   0.0000       0.032383         0.8812 
  52   0.0000       0.047013         1.2793 
  53   0.0000       0.056356         1.5335 
  54   0.0000       0.064432         1.7533 
  55   0.0000       0.076854         2.0913 
  56   0.0000       0.082690         2.2501 
  57   0.0000       0.089204         2.4274 
  58   0.0000       0.103675         2.8211 
  59   0.0000       0.116218         3.1625 
  60   0.0000       0.118891         3.2352 
  61   0.0000       0.125820         3.4237 
  62   0.0000       0.131660         3.5826 
  63   0.0000       0.140299         3.8177 
  64   0.0000       0.150903         4.1063 
  65   0.0000       0.169856         4.6220 
  66   0.0000       0.173191         4.7128 
  67   0.0000       0.184106         5.0098 
  68   0.0000       0.194225         5.2851 
  69   0.0000       0.197317         5.3693 
  70   0.0000       0.208582         5.6758 
  71   0.0000       0.222989         6.0678 
  72   0.0000       0.224476         6.1083 
  73   0.0000       0.237385         6.4596 
  74   0.0000       0.245316         6.6754 
  75   0.0000       0.256216         6.9720 
  76   0.0000       0.268082         7.2949 
  77   0.0000       0.271453         7.3866 
  78   0.0000       0.287009         7.8099 
  79   0.0000       0.293095         7.9755 
  80   0.0000       0.296292         8.0625 
  81   0.0000       0.310602         8.4519 
  82   0.0000       0.314500         8.5580 
  83   0.0000       0.330203         8.9853 
  84   0.0000       0.337100         9.1730 
  85   0.0000       0.339147         9.2287 
  86   0.0000       0.344050         9.3621 
  87   0.0000       0.352120         9.5817 
  88   0.0000       0.361444         9.8354 
  89   0.0000       0.365901         9.9567 
  90   0.0000       0.381085        10.3699 
  91   0.0000       0.389225        10.5914 
  92   0.0000       0.394151        10.7254 
  93   0.0000       0.414618        11.2823 
  94   0.0000       0.417750        11.3675 
  95   0.0000       0.426304        11.6003 
  96   0.0000       0.441615        12.0169 
  97   0.0000       0.450707        12.2644 
  98   0.0000       0.469721        12.7818 
  99   0.0000       0.471655        12.8344 
 100   0.0000       0.479499        13.0478 
 101   0.0000       0.492218        13.3939 
 102   0.0000       0.501975        13.6594 
 103   0.0000       0.520392        14.1606 
 104   0.0000       0.540982        14.7209 
 105   0.0000       0.546993        14.8844 
 106   0.0000       0.550283        14.9739 
 107   0.0000       0.568771        15.4771 
 108   0.0000       0.576098        15.6764 
 109   0.0000       0.586516        15.9599 
 110   0.0000       0.606718        16.5096 
 111   0.0000       0.617133        16.7930 
 112   0.0000       0.634804        17.2739 
 113   0.0000       0.653856        17.7923 
 114   0.0000       0.681339        18.5402 
 115   0.0000       0.690362        18.7857 
 116   0.0000       0.698830        19.0161 
 117   0.0000       0.714502        19.4426 
 118   0.0000       0.733068        19.9478 
 119   0.0000       0.745428        20.2841 
 120   0.0000       0.757290        20.6069 
 121   0.0000       0.771221        20.9860 
 122   0.0000       0.790018        21.4975 
 123   0.0000       0.811434        22.0802 
 124   0.0000       0.827755        22.5244 
 125   0.0000       0.847612        23.0647 
 126   0.0000       0.858006        23.3475 
 127   0.0000       0.869677        23.6651 
 128   0.0000       0.879818        23.9411 
 129   0.0000       0.915261        24.9055 
 130   0.0000       0.927569        25.2404 
 131   0.0000       0.929908        25.3041 
 132   0.0000       0.946776        25.7631 
 133   0.0000       0.960913        26.1478 
 134   0.0000       0.981305        26.7027 
 135   0.0000       1.005478        27.3605 
 136   0.0000       1.028166        27.9778 
 137   0.0000       1.032273        28.0896 
 138   0.0000       1.044767        28.4295 
 139   0.0000       1.072270        29.1780 
 140   0.0000       1.087367        29.5888 
 141   0.0000       1.099867        29.9289 
 142   0.0000       1.119171        30.4542 
 143   0.0000       1.157154        31.4878 
 144   0.0000       1.178768        32.0759 
 145   0.0000       1.217507        33.1300 
 146   0.0000       1.228824        33.4380 
 147   0.0000       1.247847        33.9556 
 148   0.0000       1.253417        34.1072 
 149   0.0000       1.264988        34.4221 
 150   0.0000       1.280303        34.8388 
 151   0.0000       1.299867        35.3712 
 152   0.0000       1.308406        35.6035 
 153   0.0000       1.312193        35.7066 
 154   0.0000       1.343775        36.5660 
 155   0.0000       1.357064        36.9276 
 156   0.0000       1.372777        37.3552 
 157   0.0000       1.384650        37.6783 
 158   0.0000       1.399884        38.0928 
 159   0.0000       1.421513        38.6813 
 160   0.0000       1.433070        38.9958 
 161   0.0000       1.442950        39.2647 
 162   0.0000       1.454900        39.5898 
 163   0.0000       1.464393        39.8482 
 164   0.0000       1.467121        39.9224 
 165   0.0000       1.478152        40.2226 
 166   0.0000       1.508555        41.0499 
 167   0.0000       1.517746        41.3000 
 168   0.0000       1.521502        41.4022 
 169   0.0000       1.530659        41.6513 
 170   0.0000       1.539862        41.9018 
 171   0.0000       1.566971        42.6395 
 172   0.0000       1.577466        42.9250 
 173   0.0000       1.589674        43.2572 
 174   0.0000       1.610148        43.8144 
 175   0.0000       1.619193        44.0605 
 176   0.0000       1.632059        44.4106 
 177   0.0000       1.649048        44.8729 
 178   0.0000       1.657512        45.1032 
 179   0.0000       1.682937        45.7950 
 180   0.0000       1.700349        46.2689 
 181   0.0000       1.732962        47.1563 
 182   0.0000       1.755110        47.7590 
 183   0.0000       1.772719        48.2381 
 184   0.0000       1.801925        49.0329 
 185   0.0000       1.814725        49.3812 
 186   0.0000       1.825632        49.6780 
 187   0.0000       1.847897        50.2838 
 188   0.0000       1.876074        51.0506 
 189   0.0000       1.889029        51.4031 
 190   0.0000       1.904980        51.8371 
 191   0.0000       1.905185        51.8427 
 192   0.0000       1.930325        52.5268 
 193   0.0000       1.950116        53.0654 
 194   0.0000       1.969273        53.5866 
 195   0.0000       1.986651        54.0595 
 196   0.0000       1.997237        54.3476 
 197   0.0000       2.010110        54.6979 
 198   0.0000       2.024508        55.0897 
 199   0.0000       2.051225        55.8167 
 200   0.0000       2.059637        56.0456 
 201   0.0000       2.086343        56.7723 
 202   0.0000       2.111574        57.4589 
 203   0.0000       2.119432        57.6727 
 204   0.0000       2.128981        57.9325 
 205   0.0000       2.145018        58.3689 
 206   0.0000       2.160099        58.7793 
 207   0.0000       2.166199        58.9453 
 208   0.0000       2.187930        59.5366 
 209   0.0000       2.200780        59.8863 
 210   0.0000       2.215483        60.2864 
 211   0.0000       2.239258        60.9333 
 212   0.0000       2.257220        61.4221 
 213   0.0000       2.283273        62.1310 
 214   0.0000       2.292694        62.3874 
 215   0.0000       2.310491        62.8717 
 216   0.0000       2.344737        63.8035 
 217   0.0000       2.350107        63.9497 
 218   0.0000       2.351334        63.9830 
 219   0.0000       2.375308        64.6354 
 220   0.0000       2.381508        64.8041 
 221   0.0000       2.401082        65.3368 
 222   0.0000       2.409419        65.5636 
 223   0.0000       2.419369        65.8344 
 224   0.0000       2.444482        66.5177 
 225   0.0000       2.473473        67.3066 
 226   0.0000       2.483541        67.5806 
 227   0.0000       2.495063        67.8941 
 228   0.0000       2.516963        68.4900 
 229   0.0000       2.526238        68.7424 
 230   0.0000       2.535601        68.9972 
 231   0.0000       2.555241        69.5316 
 232   0.0000       2.569932        69.9314 
 233   0.0000       2.576639        70.1139 
 234   0.0000       2.605524        70.8999 
 235   0.0000       2.609051        70.9959 
 236   0.0000       2.628461        71.5241 
 237   0.0000       2.657013        72.3010 
 238   0.0000       2.674624        72.7802 
 239   0.0000       2.711914        73.7949 
 240   0.0000       2.724446        74.1359 
 241   0.0000       2.733246        74.3754 
 242   0.0000       2.746389        74.7330 
 243   0.0000       2.762723        75.1775 
 244   0.0000       2.775654        75.5294 
 245   0.0000       2.780105        75.6505 
 246   0.0000       2.801483        76.2322 
 247   0.0000       2.812318        76.5271 
 248   0.0000       2.832262        77.0698 
 249   0.0000       2.835471        77.1571 
 250   0.0000       2.860761        77.8453 
 251   0.0000       2.867307        78.0234 
 252   0.0000       2.887166        78.5638 
 253   0.0000       2.902678        78.9859 
 254   0.0000       2.912221        79.2456 
 255   0.0000       2.920627        79.4743 
 256   0.0000       2.939737        79.9943 
 257   0.0000       2.954301        80.3906 
 258   0.0000       2.964890        80.6788 
 259   0.0000       2.969883        80.8146 
 260   0.0000       2.985326        81.2349 
 261   0.0000       2.999188        81.6121 
 262   0.0000       3.009757        81.8996 
 263   0.0000       3.032044        82.5061 
 264   0.0000       3.039991        82.7224 
 265   0.0000       3.055617        83.1476 
 266   0.0000       3.069446        83.5239 
 267   0.0000       3.081416        83.8496 
 268   0.0000       3.092302        84.1458 
 269   0.0000       3.100767        84.3762 
 270   0.0000       3.124692        85.0272 
 271   0.0000       3.134191        85.2857 
 272   0.0000       3.146407        85.6181 
 273   0.0000       3.153138        85.8013 
 274   0.0000       3.162060        86.0440 
 275   0.0000       3.187696        86.7416 
 276   0.0000       3.198016        87.0224 
 277   0.0000       3.210443        87.3606 
 278   0.0000       3.216087        87.5142 
 279   0.0000       3.229626        87.8826 
 280   0.0000       3.244595        88.2899 
 281   0.0000       3.255579        88.5888 
 282   0.0000       3.274980        89.1167 
 283   0.0000       3.288036        89.4720 
 284   0.0000       3.307986        90.0149 
 285   0.0000       3.319503        90.3283 
 286   0.0000       3.340103        90.8888 
 287   0.0000       3.349359        91.1407 
 288   0.0000       3.362583        91.5005 
 289   0.0000       3.382027        92.0296 
 290   0.0000       3.409944        92.7893 
 291   0.0000       3.424589        93.1878 
 292   0.0000       3.434791        93.4654 
 293   0.0000       3.482908        94.7748 
 294   0.0000       3.499074        95.2146 
 295   0.0000       3.519729        95.7767 
 296   0.0000       3.526015        95.9477 
 297   0.0000       3.557719        96.8104 
 298   0.0000       3.578289        97.3702 
 299   0.0000       3.595615        97.8417 
 300   0.0000       3.623327        98.5957 
 301   0.0000       3.644008        99.1585 
 302   0.0000       3.671036        99.8940 
 303   0.0000       3.703805       100.7856 
 304   0.0000       3.726560       101.4049 
 305   0.0000       3.746500       101.9475 
 306   0.0000       3.797171       103.3263 
 307   0.0000       3.804197       103.5175 
 308   0.0000       3.820241       103.9541 
 309   0.0000       3.888653       105.8156 
 310   0.0000       3.896247       106.0223 
 311   0.0000       3.927531       106.8735 
 312   0.0000       3.942780       107.2885 
 313   0.0000       3.982125       108.3591 
 314   0.0000       3.993204       108.6606 
 315   0.0000       4.011760       109.1655 
 316   0.0000       4.038702       109.8987 
 317   0.0000       4.048785       110.1730 
 318   0.0000       4.066896       110.6659 
 319   0.0000       4.082446       111.0890 
 320   0.0000       4.123600       112.2089 
 321   0.0000       4.140450       112.6674 
 322   0.0000       4.181051       113.7722 
 323   0.0000       4.231801       115.1532 
 324   0.0000       4.245510       115.5262 
 325   0.0000       4.256706       115.8309 
 326   0.0000       4.301347       117.0456 
 327   0.0000       4.325328       117.6982 
 328   0.0000       4.368462       118.8719 
 329   0.0000       4.390244       119.4646 
 330   0.0000       4.418148       120.2239 
 331   0.0000       4.447421       121.0205 
 332   0.0000       4.472329       121.6983 
 333   0.0000       4.500180       122.4561 
 334   0.0000       4.596775       125.0846 
 335   0.0000       4.669302       127.0582 
 336   0.0000       4.697758       127.8325 
 337   0.0000       4.766756       129.7100 
 338   0.0000       4.781260       130.1047 
 339   0.0000       4.822219       131.2192 
 340   0.0000       4.848301       131.9290 
 341   0.0000       4.867051       132.4392 
 342   0.0000       4.945483       134.5734 
 343   0.0000       4.994034       135.8946 
 344   0.0000       5.026957       136.7905 
 345   0.0000       5.065371       137.8358 
 346   0.0000       5.080165       138.2383 
 347   0.0000       5.131817       139.6438 
 348   0.0000       5.218842       142.0119 
 349   0.0000       5.240586       142.6036 
 350   0.0000       5.265683       143.2865 
 351   0.0000       5.325624       144.9176 
 352   0.0000       5.374429       146.2456 
 353   0.0000       5.588869       152.0809 
 354   0.0000       5.625938       153.0896 
 355   0.0000       5.707760       155.3160 
 356   0.0000       5.746266       156.3639 
 357   0.0000       5.777125       157.2036 
 358   0.0000       5.925140       161.2313 
 359   0.0000       6.207426       168.9126 
 360   0.0000       6.238331       169.7536 
 361   0.0000       6.268412       170.5722 
 362   0.0000       6.532368       177.7548 
 363   0.0000       6.799071       185.0121 
 364   0.0000       6.817907       185.5247 
 365   0.0000       6.995982       190.3704 
 366   0.0000      22.096739       601.2828 
 367   0.0000      22.331481       607.6705 
 368   0.0000      22.402596       609.6056 
 369   0.0000      22.434079       610.4623 
 370   0.0000      22.834214       621.3506 
 371   0.0000      22.907071       623.3331 
 372   0.0000      23.024009       626.5151 
 373   0.0000      23.406546       636.9245 
 374   0.0000      32.825481       893.2268 
 375   0.0000      43.995660      1197.1828 

                 SPIN DOWN ORBITALS
  NO   OCC          E(Eh)            E(eV) 
   0   1.0000     -19.806470      -538.9615 
   1   1.0000     -15.026859      -408.9016 
   2   1.0000     -10.787700      -293.5482 
   3   1.0000     -10.770760      -293.0873 
   4   1.0000     -10.769106      -293.0423 
   5   1.0000     -10.749813      -292.5173 
   6   1.0000     -10.739740      -292.2432 
   7   1.0000     -10.736112      -292.1445 
   8   1.0000     -10.713244      -291.5222 
   9   1.0000     -10.684145      -290.7304 
  10   1.0000      -1.344936       -36.5976 
  11   1.0000      -1.319006       -35.8920 
  12   1.0000      -1.124442       -30.5976 
  13   1.0000      -1.068304       -29.0700 
  14   1.0000      -1.014438       -27.6043 
  15   1.0000      -0.979537       -26.6546 
  16   1.0000      -0.932794       -25.3826 
  17   1.0000      -0.889315       -24.1995 
  18   1.0000      -0.851341       -23.1662 
  19   1.0000      -0.802749       -21.8439 
  20   1.0000      -0.783722       -21.3262 
  21   1.0000      -0.769037       -20.9266 
  22   1.0000      -0.738535       -20.0965 
  23   1.0000      -0.695704       -18.9311 
  24   1.0000      -0.682964       -18.5844 
  25   1.0000      -0.674015       -18.3409 
  26   1.0000      -0.656928       -17.8759 
  27   1.0000      -0.647001       -17.6058 
  28   1.0000      -0.635446       -17.2914 
  29   1.0000      -0.615455       -16.7474 
  30   1.0000      -0.611090       -16.6286 
  31   1.0000      -0.590887       -16.0789 
  32   1.0000      -0.579628       -15.7725 
  33   1.0000      -0.546881       -14.8814 
  34   1.0000      -0.525551       -14.3010 
  35   1.0000      -0.486959       -13.2508 
  36   0.0000      -0.240923        -6.5559 
  37   0.0000      -0.159988        -4.3535 
  38   0.0000      -0.146782        -3.9942 
  39   0.0000      -0.080936        -2.2024 
  40   0.0000      -0.074143        -2.0175 
  41   0.0000      -0.050554        -1.3756 
  42   0.0000      -0.044828        -1.2198 
  43   0.0000      -0.034185        -0.9302 
  44   0.0000      -0.026451        -0.7198 
  45   0.0000      -0.014299        -0.3891 
  46   0.0000      -0.005085        -0.1384 
  47   0.0000       0.005874         0.1598 
  48   0.0000       0.016932         0.4607 
  49   0.0000       0.018783         0.5111 
  50   0.0000       0.025372         0.6904 
  51   0.0000       0.031214         0.8494 
  52   0.0000       0.047744         1.2992 
  53   0.0000       0.052362         1.4248 
  54   0.0000       0.062094         1.6897 
  55   0.0000       0.072059         1.9608 
  56   0.0000       0.082533         2.2458 
  57   0.0000       0.090139         2.4528 
  58   0.0000       0.095138         2.5888 
  59   0.0000       0.115132         3.1329 
  60   0.0000       0.116059         3.1581 
  61   0.0000       0.120175         3.2701 
  62   0.0000       0.125694         3.4203 
  63   0.0000       0.134671         3.6646 
  64   0.0000       0.149595         4.0707 
  65   0.0000       0.159828         4.3491 
  66   0.0000       0.172545         4.6952 
  67   0.0000       0.184048         5.0082 
  68   0.0000       0.185317         5.0427 
  69   0.0000       0.194538         5.2937 
  70   0.0000       0.205515         5.5923 
  71   0.0000       0.209547         5.7021 
  72   0.0000       0.218900         5.9566 
  73   0.0000       0.238818         6.4986 
  74   0.0000       0.244556         6.6547 
  75   0.0000       0.254966         6.9380 
  76   0.0000       0.267380         7.2758 
  77   0.0000       0.272676         7.4199 
  78   0.0000       0.283903         7.7254 
  79   0.0000       0.286716         7.8019 
  80   0.0000       0.293551         7.9879 
  81   0.0000       0.310689         8.4543 
  82   0.0000       0.314262         8.5515 
  83   0.0000       0.330729         8.9996 
  84   0.0000       0.336102         9.1458 
  85   0.0000       0.336690         9.1618 
  86   0.0000       0.343032         9.3344 
  87   0.0000       0.353894         9.6299 
  88   0.0000       0.361887         9.8474 
  89   0.0000       0.367678        10.0050 
  90   0.0000       0.377894        10.2830 
  91   0.0000       0.386972        10.5300 
  92   0.0000       0.392222        10.6729 
  93   0.0000       0.408871        11.1259 
  94   0.0000       0.416772        11.3410 
  95   0.0000       0.424709        11.5569 
  96   0.0000       0.440497        11.9865 
  97   0.0000       0.449841        12.2408 
  98   0.0000       0.467763        12.7285 
  99   0.0000       0.473011        12.8713 
 100   0.0000       0.479158        13.0385 
 101   0.0000       0.492393        13.3987 
 102   0.0000       0.501275        13.6404 
 103   0.0000       0.518617        14.1123 
 104   0.0000       0.539563        14.6823 
 105   0.0000       0.545283        14.8379 
 106   0.0000       0.550180        14.9712 
 107   0.0000       0.570044        15.5117 
 108   0.0000       0.575733        15.6665 
 109   0.0000       0.584697        15.9104 
 110   0.0000       0.604966        16.4620 
 111   0.0000       0.617787        16.8108 
 112   0.0000       0.633244        17.2315 
 113   0.0000       0.653905        17.7937 
 114   0.0000       0.680697        18.5227 
 115   0.0000       0.693009        18.8577 
 116   0.0000       0.697209        18.9720 
 117   0.0000       0.715007        19.4563 
 118   0.0000       0.731899        19.9160 
 119   0.0000       0.744834        20.2680 
 120   0.0000       0.757579        20.6148 
 121   0.0000       0.771072        20.9819 
 122   0.0000       0.788423        21.4541 
 123   0.0000       0.811478        22.0815 
 124   0.0000       0.826390        22.4872 
 125   0.0000       0.846190        23.0260 
 126   0.0000       0.858165        23.3519 
 127   0.0000       0.869199        23.6521 
 128   0.0000       0.878082        23.8938 
 129   0.0000       0.915538        24.9131 
 130   0.0000       0.927340        25.2342 
 131   0.0000       0.930146        25.3106 
 132   0.0000       0.945883        25.7388 
 133   0.0000       0.960775        26.1440 
 134   0.0000       0.980608        26.6837 
 135   0.0000       1.004971        27.3466 
 136   0.0000       1.027619        27.9629 
 137   0.0000       1.034814        28.1587 
 138   0.0000       1.045510        28.4498 
 139   0.0000       1.073011        29.1981 
 140   0.0000       1.089008        29.6334 
 141   0.0000       1.100776        29.9536 
 142   0.0000       1.120132        30.4803 
 143   0.0000       1.157907        31.5082 
 144   0.0000       1.181432        32.1484 
 145   0.0000       1.218765        33.1643 
 146   0.0000       1.228693        33.4344 
 147   0.0000       1.248950        33.9857 
 148   0.0000       1.255665        34.1684 
 149   0.0000       1.265302        34.4306 
 150   0.0000       1.284220        34.9454 
 151   0.0000       1.304984        35.5104 
 152   0.0000       1.308594        35.6087 
 153   0.0000       1.320134        35.9227 
 154   0.0000       1.349870        36.7318 
 155   0.0000       1.357986        36.9527 
 156   0.0000       1.373949        37.3870 
 157   0.0000       1.387580        37.7580 
 158   0.0000       1.401449        38.1354 
 159   0.0000       1.424096        38.7516 
 160   0.0000       1.433523        39.0082 
 161   0.0000       1.444048        39.2945 
 162   0.0000       1.461801        39.7776 
 163   0.0000       1.467787        39.9405 
 164   0.0000       1.469907        39.9982 
 165   0.0000       1.479436        40.2575 
 166   0.0000       1.510193        41.0944 
 167   0.0000       1.521118        41.3917 
 168   0.0000       1.522615        41.4325 
 169   0.0000       1.531950        41.6865 
 170   0.0000       1.540468        41.9183 
 171   0.0000       1.569506        42.7084 
 172   0.0000       1.579215        42.9726 
 173   0.0000       1.590998        43.2932 
 174   0.0000       1.611270        43.8449 
 175   0.0000       1.623686        44.1828 
 176   0.0000       1.636807        44.5398 
 177   0.0000       1.651791        44.9475 
 178   0.0000       1.659028        45.1444 
 179   0.0000       1.685609        45.8677 
 180   0.0000       1.701918        46.3115 
 181   0.0000       1.735356        47.2214 
 182   0.0000       1.755348        47.7655 
 183   0.0000       1.774294        48.2810 
 184   0.0000       1.804234        49.0957 
 185   0.0000       1.818431        49.4820 
 186   0.0000       1.830113        49.7999 
 187   0.0000       1.849908        50.3386 
 188   0.0000       1.880806        51.1793 
 189   0.0000       1.890918        51.4545 
 190   0.0000       1.905943        51.8633 
 191   0.0000       1.906742        51.8851 
 192   0.0000       1.930995        52.5450 
 193   0.0000       1.949840        53.0578 
 194   0.0000       1.970633        53.6236 
 195   0.0000       1.988987        54.1231 
 196   0.0000       1.999885        54.4196 
 197   0.0000       2.011634        54.7393 
 198   0.0000       2.027287        55.1653 
 199   0.0000       2.054652        55.9099 
 200   0.0000       2.061931        56.1080 
 201   0.0000       2.091089        56.9014 
 202   0.0000       2.114556        57.5400 
 203   0.0000       2.121982        57.7421 
 204   0.0000       2.132802        58.0365 
 205   0.0000       2.147519        58.4370 
 206   0.0000       2.161761        58.8245 
 207   0.0000       2.167529        58.9815 
 208   0.0000       2.188698        59.5575 
 209   0.0000       2.202905        59.9441 
 210   0.0000       2.216585        60.3163 
 211   0.0000       2.240983        60.9803 
 212   0.0000       2.261737        61.5450 
 213   0.0000       2.290097        62.3167 
 214   0.0000       2.295608        62.4667 
 215   0.0000       2.313032        62.9408 
 216   0.0000       2.347789        63.8866 
 217   0.0000       2.351573        63.9895 
 218   0.0000       2.352921        64.0262 
 219   0.0000       2.379681        64.7544 
 220   0.0000       2.388087        64.9831 
 221   0.0000       2.402339        65.3710 
 222   0.0000       2.412340        65.6431 
 223   0.0000       2.423434        65.9450 
 224   0.0000       2.450227        66.6741 
 225   0.0000       2.476959        67.4015 
 226   0.0000       2.486938        67.6730 
 227   0.0000       2.498874        67.9978 
 228   0.0000       2.522532        68.6416 
 229   0.0000       2.528687        68.8091 
 230   0.0000       2.541926        69.1693 
 231   0.0000       2.557267        69.5868 
 232   0.0000       2.573338        70.0241 
 233   0.0000       2.579438        70.1901 
 234   0.0000       2.607513        70.9540 
 235   0.0000       2.614559        71.1458 
 236   0.0000       2.634957        71.7008 
 237   0.0000       2.659483        72.3682 
 238   0.0000       2.682040        72.9820 
 239   0.0000       2.715907        73.9036 
 240   0.0000       2.729764        74.2807 
 241   0.0000       2.743320        74.6495 
 242   0.0000       2.756073        74.9965 
 243   0.0000       2.765411        75.2507 
 244   0.0000       2.779646        75.6380 
 245   0.0000       2.785427        75.7953 
 246   0.0000       2.806223        76.3612 
 247   0.0000       2.819074        76.7109 
 248   0.0000       2.836484        77.1847 
 249   0.0000       2.845652        77.4341 
 250   0.0000       2.867152        78.0192 
 251   0.0000       2.868863        78.0657 
 252   0.0000       2.891086        78.6704 
 253   0.0000       2.905210        79.0548 
 254   0.0000       2.919015        79.4304 
 255   0.0000       2.928059        79.6765 
 256   0.0000       2.947696        80.2109 
 257   0.0000       2.962380        80.6104 
 258   0.0000       2.970443        80.8299 
 259   0.0000       2.977046        81.0095 
 260   0.0000       2.990583        81.3779 
 261   0.0000       3.001493        81.6748 
 262   0.0000       3.019508        82.1650 
 263   0.0000       3.043050        82.8056 
 264   0.0000       3.053208        83.0820 
 265   0.0000       3.062541        83.3360 
 266   0.0000       3.080532        83.8255 
 267   0.0000       3.085553        83.9622 
 268   0.0000       3.102525        84.4240 
 269   0.0000       3.110984        84.6542 
 270   0.0000       3.133270        85.2606 
 271   0.0000       3.145909        85.6045 
 272   0.0000       3.152884        85.7943 
 273   0.0000       3.167922        86.2035 
 274   0.0000       3.183800        86.6356 
 275   0.0000       3.191120        86.8348 
 276   0.0000       3.206530        87.2541 
 277   0.0000       3.212618        87.4198 
 278   0.0000       3.222442        87.6871 
 279   0.0000       3.241085        88.1944 
 280   0.0000       3.248223        88.3886 
 281   0.0000       3.264093        88.8205 
 282   0.0000       3.286488        89.4299 
 283   0.0000       3.308497        90.0288 
 284   0.0000       3.310338        90.0789 
 285   0.0000       3.325132        90.4814 
 286   0.0000       3.343133        90.9713 
 287   0.0000       3.360155        91.4345 
 288   0.0000       3.369509        91.6890 
 289   0.0000       3.389018        92.2199 
 290   0.0000       3.418962        93.0347 
 291   0.0000       3.431820        93.3846 
 292   0.0000       3.443123        93.6921 
 293   0.0000       3.484791        94.8260 
 294   0.0000       3.510841        95.5349 
 295   0.0000       3.522999        95.8657 
 296   0.0000       3.537537        96.2613 
 297   0.0000       3.569262        97.1245 
 298   0.0000       3.589693        97.6805 
 299   0.0000       3.602468        98.0281 
 300   0.0000       3.629265        98.7573 
 301   0.0000       3.652180        99.3809 
 302   0.0000       3.679135       100.1144 
 303   0.0000       3.706966       100.8717 
 304   0.0000       3.731131       101.5292 
 305   0.0000       3.751028       102.0707 
 306   0.0000       3.802694       103.4766 
 307   0.0000       3.810177       103.6802 
 308   0.0000       3.824505       104.0701 
 309   0.0000       3.896677       106.0340 
 310   0.0000       3.906191       106.2929 
 311   0.0000       3.930484       106.9539 
 312   0.0000       3.945771       107.3699 
 313   0.0000       3.990971       108.5998 
 314   0.0000       4.001842       108.8957 
 315   0.0000       4.015638       109.2711 
 316   0.0000       4.046278       110.1048 
 317   0.0000       4.052688       110.2793 
 318   0.0000       4.078991       110.9950 
 319   0.0000       4.088943       111.2658 
 320   0.0000       4.127885       112.3255 
 321   0.0000       4.143949       112.7626 
 322   0.0000       4.186384       113.9173 
 323   0.0000       4.233063       115.1875 
 324   0.0000       4.256424       115.8232 
 325   0.0000       4.274372       116.3116 
 326   0.0000       4.307188       117.2045 
 327   0.0000       4.330789       117.8468 
 328   0.0000       4.374170       119.0272 
 329   0.0000       4.395215       119.5999 
 330   0.0000       4.423912       120.3808 
 331   0.0000       4.456339       121.2631 
 332   0.0000       4.480173       121.9117 
 333   0.0000       4.504487       122.5733 
 334   0.0000       4.600447       125.1845 
 335   0.0000       4.674093       127.1885 
 336   0.0000       4.705734       128.0495 
 337   0.0000       4.773839       129.9028 
 338   0.0000       4.786303       130.2419 
 339   0.0000       4.829346       131.4132 
 340   0.0000       4.857348       132.1752 
 341   0.0000       4.885319       132.9363 
 342   0.0000       4.959008       134.9415 
 343   0.0000       4.996141       135.9519 
 344   0.0000       5.038271       137.0983 
 345   0.0000       5.068131       137.9109 
 346   0.0000       5.084846       138.3657 
 347   0.0000       5.133389       139.6866 
 348   0.0000       5.225499       142.1930 
 349   0.0000       5.243414       142.6805 
 350   0.0000       5.273426       143.4972 
 351   0.0000       5.328146       144.9862 
 352   0.0000       5.375410       146.2723 
 353   0.0000       5.589506       152.0982 
 354   0.0000       5.627003       153.1185 
 355   0.0000       5.708043       155.3237 
 356   0.0000       5.748103       156.4138 
 357   0.0000       5.778080       157.2295 
 358   0.0000       5.926039       161.2557 
 359   0.0000       6.208139       168.9320 
 360   0.0000       6.240744       169.8193 
 361   0.0000       6.268569       170.5764 
 362   0.0000       6.532860       177.7682 
 363   0.0000       6.799635       185.0275 
 364   0.0000       6.818155       185.5314 
[...]
     15      -0.000001   0.000136   0.000116  -0.000134   0.000054  -0.000798
     16       0.000003   0.000312  -0.000055   0.004223   0.000074  -0.000442
     17       0.000082   0.000002   0.000036   0.000206   0.000038   0.000014
     18      -0.000006  -0.000339   0.000114   0.002100  -0.000120  -0.000290
     19       0.000004   0.000218   0.000008  -0.000004  -0.000035  -0.000219
     20       0.000171   0.000011   0.000027   0.000002  -0.000000  -0.000008
     21       0.000105  -0.000325   0.000217  -0.064224   0.000477   0.000208
     22      -0.000048  -0.000676   0.000046  -0.014625   0.000104  -0.000448
     23       0.000041  -0.000020   0.000030  -0.000508   0.000016  -0.000017
     24      -0.000008  -0.001132  -0.000034   0.001355   0.000362  -0.004520
     25       0.000035   0.000623  -0.000069   0.001394  -0.000088   0.000033
     26      -0.000530   0.000043   0.000017   0.000045   0.000041   0.000067
     27      -0.000765  -0.075042  -0.000047   0.000701  -0.000031   0.001285
     28       0.003093  -0.054095  -0.000038   0.000569  -0.000013   0.001252
     29      -0.092028  -0.001176   0.000011  -0.000106   0.000006   0.000043
     30       0.000021   0.001162  -0.000938  -0.000971  -0.001840   0.049260
     31       0.000020   0.001515  -0.001140   0.000463  -0.002809   0.071604
     32      -0.000288   0.000059   0.000046   0.000034   0.000082   0.002341
     33       0.000018   0.000030   0.198844   0.001590  -0.031989  -0.001354
     34      -0.000028  -0.000005   0.091937   0.000831   0.002393   0.001342
     35      -0.000190   0.000002   0.641875   0.004747  -0.103722  -0.000236
     36      -0.000133  -0.000023  -0.188502  -0.001262  -0.175101  -0.012751
     37      -0.000321  -0.000082  -0.489858  -0.003296  -0.441372  -0.029082
     38       0.000187   0.000023   0.345428   0.002470   0.337510   0.021304
     39      -0.000056   0.000304  -0.130982   0.001984   0.282450   0.009007
     40       0.000065  -0.000657   0.323389  -0.004787  -0.685699  -0.026100
     41       0.000094  -0.000267   0.119244  -0.002094  -0.292388  -0.010686
     42       0.000004   0.001171   0.007178   0.001488  -0.030329   0.093200
     43      -0.000020  -0.001476  -0.010823  -0.003140   0.042571  -0.135148
     44       0.000275  -0.000069  -0.000542  -0.000109   0.002131  -0.005314
     45      -0.000786   0.001238  -0.001392   0.308444  -0.001828  -0.002840
     46       0.001138   0.000369   0.002303  -0.515332   0.003110   0.004541
     47      -0.000411   0.000015   0.000108  -0.019064   0.000116   0.000168
     48      -0.000309   0.005604  -0.001777   0.404112  -0.002770   0.000858
     49      -0.000551   0.008184  -0.003028   0.685904  -0.004658   0.000962
     50       0.000369   0.000298  -0.000060   0.025094  -0.000146   0.000037
     51       0.421901   0.155642  -0.000141   0.001105  -0.000134  -0.001103
     52      -0.075386  -0.039663   0.000045   0.000965   0.000014  -0.000466
     53       0.553647   0.233515  -0.000087  -0.000167  -0.000059  -0.002227
     54       0.007193   0.586489   0.000338  -0.004422   0.000166  -0.011691
     55       0.009279   0.692174   0.000503  -0.006507   0.000214  -0.016197
     56      -0.017189   0.026418   0.000025  -0.000275   0.000026  -0.000633
     57      -0.420274   0.160001   0.000072  -0.000050   0.000050  -0.001106
     58       0.028721  -0.020227  -0.000041   0.000977  -0.000021  -0.000661
     59       0.568700  -0.246668  -0.000048   0.001746  -0.000100   0.002200
     60      -0.000073  -0.009312   0.008288  -0.001082   0.022508  -0.537309
     61      -0.000152  -0.017059   0.012828  -0.000917   0.031699  -0.820382
     62       0.000212  -0.000567  -0.000561  -0.000019   0.000611  -0.026518
                 60         61         62    
      0      -0.001153   0.000099  -0.000063
      1      -0.001386  -0.000019  -0.000322
      2      -0.000000  -0.000005  -0.000015
      3      -0.001178  -0.000039  -0.000057
      4       0.004049   0.000012  -0.000032
      5       0.001454  -0.000004  -0.000000
      6      -0.050313  -0.000513   0.001361
      7       0.071556   0.000278   0.000509
      8       0.002870   0.000016   0.000015
      9       0.004655   0.001094  -0.002076
     10      -0.000248   0.000383  -0.000157
     11      -0.000073   0.000012   0.000029
     12      -0.000465  -0.000434  -0.061979
     13       0.000229  -0.000078  -0.002622
     14       0.000016   0.000003   0.001101
     15       0.001173   0.000103   0.997552
     16      -0.002105  -0.004174   0.025099
     17      -0.000158  -0.000168  -0.018448
     18      -0.000019   0.000176  -0.000637
     19       0.000150   0.000003   0.000641
     20       0.000004   0.000001   0.000029
     21       0.000451  -0.010791   0.001017
     22      -0.000498   0.098673   0.000185
     23      -0.000013   0.003591   0.000011
     24       0.000214  -0.000396   0.000069
     25      -0.000129   0.000267   0.000026
     26      -0.000013   0.000012   0.000000
     27       0.000024  -0.000368   0.000043
     28      -0.000194   0.000055  -0.000003
     29       0.000000  -0.000063  -0.000002
     30      -0.007314   0.000069  -0.000095
     31      -0.013607   0.000301   0.000285
     32      -0.000441   0.000013   0.000013
     33      -0.000890   0.000130  -0.000019
     34      -0.000445   0.000051   0.000032
     35      -0.007865   0.000238   0.000004
     36      -0.001666   0.000047  -0.000018
     37      -0.008972   0.000059   0.000085
     38       0.006653  -0.000048  -0.000025
     39       0.017905   0.000114  -0.000047
     40      -0.039842  -0.000233  -0.000049
     41      -0.016285  -0.000094   0.000023
     42       0.557578   0.003788  -0.000442
     43      -0.806533  -0.005062   0.000818
     44      -0.032409  -0.000200   0.000042
     45      -0.003604   0.429923  -0.001778
     46       0.005466  -0.673921  -0.001695
     47       0.000218  -0.024670  -0.000056
     48       0.000050  -0.308339  -0.005387
     49       0.000310  -0.504932   0.004984
     50       0.000005  -0.018372   0.000085
     51      -0.000928   0.004317  -0.000123
     52       0.000120  -0.000035   0.000058
     53      -0.000990   0.004597  -0.000231
     54       0.001395   0.002494  -0.000074
     55       0.002016   0.001749   0.000119
     56       0.000086   0.000059   0.000002
     57      -0.000893   0.003617  -0.000117
     58       0.000039   0.000331   0.000036
     59       0.000994  -0.003817   0.000231
     60       0.090514  -0.002377  -0.000463
     61       0.137777  -0.003570  -0.000699
     62       0.004363  -0.000115  -0.000025


-----------
IR SPECTRUM
-----------

 Mode   freq       eps      Int      T**2         TX        TY        TZ
       cm**-1   L/(mol*cm) km/mol    a.u.
----------------------------------------------------------------------------
  6:     52.61   0.000865    4.37  0.005129  ( 0.003092 -0.001289  0.071537)
  7:    119.87   0.000019    0.10  0.000049  ( 0.005034 -0.001088  0.004762)
  8:    182.39   0.001333    6.74  0.002282  (-0.001690 -0.001401  0.047715)
  9:    191.56   0.011573   58.49  0.018854  ( 0.002976 -0.004992  0.137185)
 10:    215.03   0.000044    0.22  0.000064  ( 0.000625  0.000101 -0.007947)
 11:    251.37   0.002014   10.18  0.002500  ( 0.000182 -0.000771  0.049998)
 12:    306.30   0.000088    0.45  0.000090  (-0.001829  0.009302  0.000133)
 13:    337.05   0.001280    6.47  0.001186  ( 0.016977  0.029951 -0.000552)
 14:    348.59   0.004632   23.41  0.004147  ( 0.003685 -0.001394  0.064277)
 15:    379.67   0.000261    1.32  0.000215  (-0.010658 -0.010031  0.000720)
 16:    430.72   0.002018   10.20  0.001462  (-0.001649  0.001854 -0.038154)
 17:    454.89   0.000453    2.29  0.000311  (-0.013167  0.011043  0.003912)
 18:    540.87   0.001524    7.70  0.000879  (-0.005706 -0.029095  0.000043)
 19:    552.56   0.001597    8.07  0.000902  (-0.003180 -0.002663  0.029745)
 20:    577.95   0.001030    5.21  0.000556  ( 0.012488  0.019701  0.003472)
 21:    598.28   0.000302    1.53  0.000158  (-0.006257 -0.010765  0.001594)
 22:    607.03   0.000245    1.24  0.000126  (-0.001170 -0.003549 -0.010578)
 23:    737.51   0.000008    0.04  0.000003  ( 0.001165 -0.000217  0.001408)
 24:    819.19   0.001016    5.14  0.000387  ( 0.009962 -0.016966 -0.000298)
 25:    841.32   0.006776   34.24  0.002513  ( 0.000504  0.003286 -0.050024)
 26:    909.53   0.002312   11.68  0.000793  (-0.001160  0.000973 -0.028123)
 27:    918.66   0.003775   19.08  0.001282  ( 0.001239 -0.001940  0.035734)
 28:    928.06   0.000200    1.01  0.000067  ( 0.001514  0.007600  0.002705)
 29:   1024.17   0.000047    0.24  0.000014  ( 0.003475  0.000875  0.001265)
 30:   1036.48   0.004417   22.32  0.001330  ( 0.003161 -0.036281 -0.001882)
 31:   1061.29   0.000428    2.16  0.000126  (-0.000468  0.001139 -0.011152)
 32:   1121.50   0.000923    4.67  0.000257  ( 0.011488 -0.011174  0.000247)
 33:   1153.41   0.002532   12.79  0.000685  (-0.022168 -0.013457 -0.003525)
 34:   1154.60   0.000211    1.06  0.000057  ( 0.001264  0.007322 -0.001308)
 35:   1170.97   0.040580  205.07  0.010815  ( 0.037378  0.096984  0.003399)
 36:   1215.66   0.010338   52.24  0.002654  ( 0.034616 -0.038050 -0.002782)
 37:   1289.54   0.007372   37.25  0.001784  (-0.009812  0.041031  0.002051)
 38:   1326.12   0.001851    9.36  0.000436  (-0.006982 -0.019662 -0.000603)
 39:   1358.08   0.008145   41.16  0.001872  ( 0.001343  0.043223  0.001215)
 40:   1397.25   0.026877  135.82  0.006003  ( 0.066523  0.039716  0.000394)
 41:   1424.03   0.002728   13.79  0.000598  ( 0.023753  0.005788  0.000341)
 42:   1443.53   0.002891   14.61  0.000625  ( 0.007744 -0.023670 -0.002184)
 43:   1468.37   0.000287    1.45  0.000061  ( 0.006057 -0.001781  0.004601)
 44:   1480.50   0.002921   14.76  0.000616  ( 0.000021  0.002021 -0.024731)
 45:   1490.73   0.001523    7.70  0.000319  (-0.000629  0.008483 -0.015700)
 46:   1500.58   0.001410    7.13  0.000293  (-0.003624 -0.005762  0.015712)
 47:   1514.81   0.004549   22.99  0.000937  (-0.007337 -0.028510 -0.008400)
 48:   1532.18   0.023398  118.24  0.004765  ( 0.022163  0.065300  0.003185)
 49:   1566.91   0.024710  124.87  0.004921  ( 0.004678 -0.069933 -0.002951)
 50:   1588.63   0.006385   32.27  0.001254  (-0.003691 -0.035195 -0.001400)
 51:   1689.43   0.006050   30.57  0.001117  (-0.027163  0.019453  0.001114)
 52:   3075.94   0.000009    0.05  0.000001  (-0.000304  0.000929 -0.000043)
 53:   3099.89   0.000126    0.64  0.000013  (-0.003514  0.000356  0.000456)
 54:   3142.62   0.000015    0.08  0.000002  (-0.000079  0.000056 -0.001226)
 55:   3182.14   0.000305    1.54  0.000030  (-0.000629 -0.005426 -0.000339)
 56:   3189.28   0.000119    0.60  0.000012  ( 0.002366 -0.000142  0.002457)
 57:   3203.09   0.001188    6.00  0.000116  ( 0.010086 -0.003744 -0.000099)
 58:   3215.06   0.000043    0.22  0.000004  (-0.001798 -0.000956  0.000047)
 59:   3253.48   0.001097    5.54  0.000105  (-0.004506 -0.009213 -0.000232)
 60:   3261.74   0.003174   16.04  0.000304  ( 0.013435 -0.011090 -0.000388)
 61:   3299.60   0.000233    1.18  0.000022  ( 0.004180 -0.002126  0.000021)
 62:   3865.44   0.024268  122.64  0.001959  ( 0.036046  0.025686  0.000336)

* The epsilon (eps) is given for a Dirac delta lineshape.
** The dipole moment derivative (T) already includes vibrational overlap.

The first frequency considered to be a vibration is 6
The total number of vibrations considered is 57


--------------------------
THERMOCHEMISTRY AT 298.15K
--------------------------

Temperature         ... 298.15 K
Pressure            ... 1.00 atm
Total Mass          ... 137.18 AMU

Throughout the following assumptions are being made:
  (1) The electronic state is orbitally nondegenerate
      but the spin degeneracy is treated
  (2) There are no thermally accessible electronically excited states
  (3) Hindered rotations indicated by low frequency modes are not
      treated as such but are treated as vibrations and this may
      cause some error
  (4) All equations used are the standard statistical mechanics
      equations for an ideal gas
  (5) All vibrations are strictly harmonic

freq.      52.61  E(vib)   ...       0.52 
freq.     119.87  E(vib)   ...       0.44 
freq.     182.39  E(vib)   ...       0.37 
freq.     191.56  E(vib)   ...       0.36 
freq.     215.03  E(vib)   ...       0.34 
freq.     251.37  E(vib)   ...       0.30 
freq.     306.30  E(vib)   ...       0.26 
freq.     337.05  E(vib)   ...       0.24 
freq.     348.59  E(vib)   ...       0.23 
freq.     379.67  E(vib)   ...       0.21 
freq.     430.72  E(vib)   ...       0.18 
freq.     454.89  E(vib)   ...       0.16 
freq.     540.87  E(vib)   ...       0.12 
freq.     552.56  E(vib)   ...       0.12 
freq.     577.95  E(vib)   ...       0.11 
freq.     598.28  E(vib)   ...       0.10 
freq.     607.03  E(vib)   ...       0.10 
freq.     737.51  E(vib)   ...       0.06 
freq.     819.19  E(vib)   ...       0.05 
freq.     841.32  E(vib)   ...       0.04 
freq.     909.53  E(vib)   ...       0.03 
freq.     918.66  E(vib)   ...       0.03 
freq.     928.06  E(vib)   ...       0.03 
freq.    1024.17  E(vib)   ...       0.02 
freq.    1036.48  E(vib)   ...       0.02 
freq.    1061.29  E(vib)   ...       0.02 
freq.    1121.50  E(vib)   ...       0.01 
freq.    1153.41  E(vib)   ...       0.01 
freq.    1154.60  E(vib)   ...       0.01 
freq.    1170.97  E(vib)   ...       0.01 
freq.    1215.66  E(vib)   ...       0.01 
freq.    1289.54  E(vib)   ...       0.01 
freq.    1326.12  E(vib)   ...       0.01 
freq.    1358.08  E(vib)   ...       0.01 
freq.    1397.25  E(vib)   ...       0.00 
freq.    1424.03  E(vib)   ...       0.00 
freq.    1443.53  E(vib)   ...       0.00 
freq.    1468.37  E(vib)   ...       0.00 
freq.    1480.50  E(vib)   ...       0.00 
freq.    1490.73  E(vib)   ...       0.00 
freq.    1500.58  E(vib)   ...       0.00 
freq.    1514.81  E(vib)   ...       0.00 
freq.    1532.18  E(vib)   ...       0.00 
freq.    1566.91  E(vib)   ...       0.00 
freq.    1588.63  E(vib)   ...       0.00 
freq.    1689.43  E(vib)   ...       0.00 
freq.    3075.94  E(vib)   ...       0.00 
freq.    3099.89  E(vib)   ...       0.00 
freq.    3142.62  E(vib)   ...       0.00 
freq.    3182.14  E(vib)   ...       0.00 
freq.    3189.28  E(vib)   ...       0.00 
freq.    3203.09  E(vib)   ...       0.00 
freq.    3215.06  E(vib)   ...       0.00 
freq.    3253.48  E(vib)   ...       0.00 
freq.    3261.74  E(vib)   ...       0.00 
freq.    3299.60  E(vib)   ...       0.00 
freq.    3865.44  E(vib)   ...       0.00 

------------
INNER ENERGY
------------

The inner energy is: U= E(el) + E(ZPE) + E(vib) + E(rot) + E(trans)
    E(el)   - is the total energy from the electronic structure calculation
              = E(kin-el) + E(nuc-el) + E(el-el) + E(nuc-nuc)
    E(ZPE)  - the the zero temperature vibrational energy from the frequency calculation
    E(vib)  - the the finite temperature correction to E(ZPE) due to population
              of excited vibrational states
    E(rot)  - is the rotational thermal energy
    E(trans)- is the translational thermal energy

Summary of contributions to the inner energy U:
Electronic energy                ...   -441.15200708 Eh
Zero point energy                ...      0.17792031 Eh     111.65 kcal/mol
Thermal vibrational correction   ...      0.00727859 Eh       4.57 kcal/mol
Thermal rotational correction    ...      0.00141627 Eh       0.89 kcal/mol
Thermal translational correction ...      0.00141627 Eh       0.89 kcal/mol
-----------------------------------------------------------------------
Total thermal energy                   -440.96397564 Eh


Summary of corrections to the electronic energy:
(perhaps to be used in another calculation)
Total thermal correction                  0.01011113 Eh       6.34 kcal/mol
Non-thermal (ZPE) correction              0.17792031 Eh     111.65 kcal/mol
-----------------------------------------------------------------------
Total correction                          0.18803144 Eh     117.99 kcal/mol


--------
ENTHALPY
--------

The enthalpy is H = U + kB*T
                kB is Boltzmann's constant
Total free energy                 ...   -440.96397564 Eh 
Thermal Enthalpy correction       ...      0.00094421 Eh       0.59 kcal/mol
-----------------------------------------------------------------------
Total Enthalpy                    ...   -440.96303143 Eh


Note: Only C1 symmetry has been detected, increase convergence thresholds 
      if your molecule has a higher symmetry. Symmetry factor of 1.0 is   
      used for the rotational entropy correction. 
 

Note: Rotational entropy computed according to Herzberg 
Infrared and Raman Spectra, Chapter V,1, Van Nostrand Reinhold, 1945 
Point Group:  C1, Symmetry Number:   1  
Rotational constants in cm-1:     0.058552     0.044925     0.025667 

Vibrational entropy computed according to the QRRHO of S. Grimme
Chem.Eur.J. 2012 18 9955


-------
ENTROPY
-------

The entropy contributions are T*S = T*(S(el)+S(vib)+S(rot)+S(trans))
     S(el)   - electronic entropy
     S(vib)  - vibrational entropy
     S(rot)  - rotational entropy
     S(trans)- translational entropy
The entropies will be listed as multiplied by the temperature to get
units of energy

Electronic entropy                ...      0.00065446 Eh      0.41 kcal/mol
Vibrational entropy               ...      0.01210072 Eh      7.59 kcal/mol
Rotational entropy                ...      0.01404435 Eh      8.81 kcal/mol
Translational entropy             ...      0.01931898 Eh     12.12 kcal/mol
-----------------------------------------------------------------------
Final entropy term                ...      0.04611851 Eh     28.94 kcal/mol

In case the symmetry of your molecule has not been determined correctly
or in case you have a reason to use a different symmetry number we print 
out the resulting rotational entropy values for sn=1,12 :
 --------------------------------------------------------
|  sn= 1 | S(rot)=       0.01404435 Eh      8.81 kcal/mol|
|  sn= 2 | S(rot)=       0.01338990 Eh      8.40 kcal/mol|
|  sn= 3 | S(rot)=       0.01300706 Eh      8.16 kcal/mol|
|  sn= 4 | S(rot)=       0.01273544 Eh      7.99 kcal/mol|
|  sn= 5 | S(rot)=       0.01252475 Eh      7.86 kcal/mol|
|  sn= 6 | S(rot)=       0.01235261 Eh      7.75 kcal/mol|
|  sn= 7 | S(rot)=       0.01220706 Eh      7.66 kcal/mol|
|  sn= 8 | S(rot)=       0.01208098 Eh      7.58 kcal/mol|
|  sn= 9 | S(rot)=       0.01196978 Eh      7.51 kcal/mol|
|  sn=10 | S(rot)=       0.01187030 Eh      7.45 kcal/mol|
|  sn=11 | S(rot)=       0.01178031 Eh      7.39 kcal/mol|
|  sn=12 | S(rot)=       0.01169815 Eh      7.34 kcal/mol|
 --------------------------------------------------------


-------------------
GIBBS FREE ENERGY
-------------------

The Gibbs free energy is G = H - T*S

Total enthalpy                    ...   -440.96303143 Eh 
Total entropy correction          ...     -0.04611851 Eh    -28.94 kcal/mol
-----------------------------------------------------------------------
Final Gibbs free energy         ...   -441.00914994 Eh

For completeness - the Gibbs free energy minus the electronic energy
G-E(el)                           ...      0.14285714 Eh     89.64 kcal/mol


Timings for individual modules:

Sum of individual times         ...     2334.127 sec (=  38.902 min)
GTO integral calculation        ...       66.455 sec (=   1.108 min)   2.8 %
SCF iterations                  ...     1354.750 sec (=  22.579 min)  58.0 %
SCF Gradient evaluation         ...      263.126 sec (=   4.385 min)  11.3 %
Geometry relaxation             ...        3.207 sec (=   0.053 min)   0.1 %
Analytical frequency calculation...      646.589 sec (=  10.776 min)  27.7 %
                             ****ORCA TERMINATED NORMALLY****
TOTAL RUN TIME: 0 days 0 hours 40 minutes 57 seconds 829 msec
