
                                 *****************
                                 * O   R   C   A *
                                 *****************

                                            #,                                       
                                            ###                                      
                                            ####                                     
                                            #####                                    
                                            ######                                   
                                           ########,                                 
                                     ,,################,,,,,                         
                               ,,#################################,,                 
                          ,,##########################################,,             
                       ,#########################################, ''#####,          
                    ,#############################################,,   '####,        
                  ,##################################################,,,,####,       
                ,###########''''           ''''###############################       
              ,#####''   ,,,,##########,,,,          '''####'''          '####       
            ,##' ,,,,###########################,,,                        '##       
           ' ,,###''''                  '''############,,,                           
         ,,##''                                '''############,,,,        ,,,,,,###''
      ,#''                                            '''#######################'''  
     '                                                          ''''####''''         
             ,#######,   #######,   ,#######,      ##                                
            ,#'     '#,  ##    ##  ,#'     '#,    #''#        ######   ,####,        
            ##       ##  ##   ,#'  ##            #'  '#       #        #'  '#        
            ##       ##  #######   ##           ,######,      #####,   #    #        
            '#,     ,#'  ##    ##  '#,     ,#' ,#      #,         ##   #,  ,#        
             '#######'   ##     ##  '#######'  #'      '#     #####' # '####'        



                  #######################################################
                  #                        -***-                        #
                  #          Department of theory and spectroscopy      #
                  #    Directorship and core code : Frank Neese         #
                  #        Max Planck Institute fuer Kohlenforschung    #
                  #                Kaiser Wilhelm Platz 1               #
                  #                 D-45470 Muelheim/Ruhr               #
                  #                      Germany                        #
                  #                                                     #
                  #                  All rights reserved                #
                  #                        -***-                        #
                  #######################################################


                         Program Version 5.0.4 -  RELEASE  -


 With contributions from (in alphabetic order):
   Daniel Aravena         : Magnetic Suceptibility
   Michael Atanasov       : Ab Initio Ligand Field Theory (pilot matlab implementation)
   Alexander A. Auer      : GIAO ZORA, VPT2 properties, NMR spectrum
   Ute Becker             : Parallelization
   Giovanni Bistoni       : ED, misc. LED, open-shell LED, HFLD
   Martin Brehm           : Molecular dynamics
   Dmytro Bykov           : SCF Hessian
   Vijay G. Chilkuri      : MRCI spin determinant printing, contributions to CSF-ICE
   Dipayan Datta          : RHF DLPNO-CCSD density
   Achintya Kumar Dutta   : EOM-CC, STEOM-CC
   Dmitry Ganyushin       : Spin-Orbit,Spin-Spin,Magnetic field MRCI
   Miquel Garcia          : C-PCM and meta-GGA Hessian, CC/C-PCM, Gaussian charge scheme
   Yang Guo               : DLPNO-NEVPT2, F12-NEVPT2, CIM, IAO-localization
   Andreas Hansen         : Spin unrestricted coupled pair/coupled cluster methods
   Benjamin Helmich-Paris : MC-RPA, TRAH-SCF, COSX integrals
   Lee Huntington         : MR-EOM, pCC
   Robert Izsak           : Overlap fitted RIJCOSX, COSX-SCS-MP3, EOM
   Marcus Kettner         : VPT2
   Christian Kollmar      : KDIIS, OOCD, Brueckner-CCSD(T), CCSD density, CASPT2, CASPT2-K
   Simone Kossmann        : Meta GGA functionals, TD-DFT gradient, OOMP2, MP2 Hessian
   Martin Krupicka        : Initial AUTO-CI
   Lucas Lang             : DCDCAS
   Marvin Lechner         : AUTO-CI (C++ implementation), FIC-MRCC
   Dagmar Lenk            : GEPOL surface, SMD
   Dimitrios Liakos       : Extrapolation schemes; Compound Job, initial MDCI parallelization
   Dimitrios Manganas     : Further ROCIS development; embedding schemes
   Dimitrios Pantazis     : SARC Basis sets
   Anastasios Papadopoulos: AUTO-CI, single reference methods and gradients
   Taras Petrenko         : DFT Hessian,TD-DFT gradient, ASA, ECA, R-Raman, ABS, FL, XAS/XES, NRVS
   Peter Pinski           : DLPNO-MP2, DLPNO-MP2 Gradient
   Christoph Reimann      : Effective Core Potentials
   Marius Retegan         : Local ZFS, SOC
   Christoph Riplinger    : Optimizer, TS searches, QM/MM, DLPNO-CCSD(T), (RO)-DLPNO pert. Triples
   Tobias Risthaus        : Range-separated hybrids, TD-DFT gradient, RPA, STAB
   Michael Roemelt        : Original ROCIS implementation
   Masaaki Saitow         : Open-shell DLPNO-CCSD energy and density
   Barbara Sandhoefer     : DKH picture change effects
   Avijit Sen             : IP-ROCIS
   Kantharuban Sivalingam : CASSCF convergence, NEVPT2, FIC-MRCI
   Bernardo de Souza      : ESD, SOC TD-DFT
   Georgi Stoychev        : AutoAux, RI-MP2 NMR, DLPNO-MP2 response
   Willem Van den Heuvel  : Paramagnetic NMR
   Boris Wezisla          : Elementary symmetry handling
   Frank Wennmohs         : Technical directorship


 We gratefully acknowledge several colleagues who have allowed us to
 interface, adapt or use parts of their codes:
   Stefan Grimme, W. Hujo, H. Kruse, P. Pracht,  : VdW corrections, initial TS optimization,
                  C. Bannwarth, S. Ehlert          DFT functionals, gCP, sTDA/sTD-DF
   Ed Valeev, F. Pavosevic, A. Kumar             : LibInt (2-el integral package), F12 methods
   Garnet Chan, S. Sharma, J. Yang, R. Olivares  : DMRG
   Ulf Ekstrom                                   : XCFun DFT Library
   Mihaly Kallay                                 : mrcc  (arbitrary order and MRCC methods)
   Jiri Pittner, Ondrej Demel                    : Mk-CCSD
   Frank Weinhold                                : gennbo (NPA and NBO analysis)
   Christopher J. Cramer and Donald G. Truhlar   : smd solvation model
   Lars Goerigk                                  : TD-DFT with DH, B97 family of functionals
   V. Asgeirsson, H. Jonsson                     : NEB implementation
   FAccTs GmbH                                   : IRC, NEB, NEB-TS, DLPNO-Multilevel, CI-OPT
                                                   MM, QMMM, 2- and 3-layer-ONIOM, Crystal-QMMM,
                                                   LR-CPCM, SF, NACMEs, symmetry and pop. for TD-DFT,
                                                   nearIR, NL-DFT gradient (VV10), updates on ESD,
                                                   ML-optimized integration grids
   S Lehtola, MJT Oliveira, MAL Marques          : LibXC Library
   Liviu Ungur et al                             : ANISO software


 Your calculation uses the libint2 library for the computation of 2-el integrals
 For citations please refer to: http://libint.valeyev.net

 Your ORCA version has been built with support for libXC version: 5.1.0
 For citations please refer to: https://tddft.org/programs/libxc/

 This ORCA versions uses:
   CBLAS   interface :  Fast vector & matrix operations
   LAPACKE interface :  Fast linear algebra routines
   SCALAPACK package :  Parallel linear algebra routines
   Shared memory     :  Shared parallel matrices
   BLAS/LAPACK       :  OpenBLAS 0.3.15  USE64BITINT DYNAMIC_ARCH NO_AFFINITY SkylakeX SINGLE_THREADED
        Core in use  :  SkylakeX
   Copyright (c) 2011-2014, The OpenBLAS Project




***************************************
The coordinates will be read from file: opt_EPRII.xyz
***************************************


XCFun DFT library Copyright 2009-2010 Ulf Ekstrom and contributors.
See http://admol.org/xcfun for more information.
This is free software; see the source code for copying conditions.
There is ABSOLUTELY NO WARRANTY; not even for MERCHANTABILITY or FITNESS FOR A PARTICULAR PURPOSE.
For details see the documentation.
Scientific users of this library should cite U. Ekstrom, L. Visscher, R. Bast, A. J. Thorvaldsen and K. Ruud;
J.Chem.Theor.Comp. 2010, DOI: 10.1021/ct100117s
XCFun Version 0.99 

================================================================================

----- Orbital basis set information -----
Your calculation utilizes the basis: def2-TZVP
   F. Weigend and R. Ahlrichs, Phys. Chem. Chem. Phys. 7, 3297 (2005).

----- AuxJ basis set information -----
Your calculation utilizes the auxiliary basis: def2/J
   F. Weigend, Phys. Chem. Chem. Phys. 8, 1057 (2006).

================================================================================
                                        WARNINGS
                       Please study these warnings very carefully!
================================================================================


WARNING: Geometry Optimization
  ===> : Switching off AutoStart
         For restart on a previous wavefunction, please use MOREAD

WARNING: Minnesota functionals are quite sensitive to the integration grid.
         see SE Wheeler, KN Houk, JCTC 2010, 6, 395,
             N Mardirossian, M Head-Gordon, JCTC 2016, 12, 4303.
         DEFGRID3 seems to be a minimum grid for reliable results with these functionals!
  ===> : Please increase the integration grid!


INFO   : the flag for use of the SHARK integral package has been found!

================================================================================
                                       INPUT FILE
================================================================================
NAME = freq.inp
|  1> ! M062X def2-TZVP OPT FREQ
|  2> %pal nprocs 16 end
|  3> *XYZFile 0 1 opt_EPRII.xyz
|  4> 
|  5>                          ****END OF INPUT****
================================================================================

                       *****************************
                       * Geometry Optimization Run *
                       *****************************

Geometry optimization settings:
Update method            Update   .... BFGS
Choice of coordinates    CoordSys .... Z-matrix Internals
Initial Hessian          InHess   .... Almoef's Model

Convergence Tolerances:
Energy Change            TolE     ....  5.0000e-06 Eh
Max. Gradient            TolMAXG  ....  3.0000e-04 Eh/bohr
RMS Gradient             TolRMSG  ....  1.0000e-04 Eh/bohr
Max. Displacement        TolMAXD  ....  4.0000e-03 bohr
RMS Displacement         TolRMSD  ....  2.0000e-03 bohr
Strict Convergence                ....  False
------------------------------------------------------------------------------
                        ORCA OPTIMIZATION COORDINATE SETUP
------------------------------------------------------------------------------

The optimization will be done in new redundant internal coordinates
Making redundant internal coordinates   ...  (new redundants) done
Evaluating the initial hessian          ...  (Almloef) done
Evaluating the coordinates              ...  done
Calculating the B-matrix                .... done
Calculating the G-matrix                .... done
Diagonalizing the G-matrix              .... done
The first mode is                       ....   42
The number of degrees of freedom        ....   57

    -----------------------------------------------------------------
                    Redundant Internal Coordinates


    -----------------------------------------------------------------
         Definition                    Initial Value    Approx d2E/dq
    -----------------------------------------------------------------
      1. B(C   1,N   0)                  1.4876         0.390944   
      2. B(C   2,N   0)                  1.3347         0.685656   
      3. B(C   3,C   2)                  1.4506         0.500077   
      4. B(O   4,C   3)                  1.2586         0.906866   
      5. B(C   5,C   3)                  1.4615         0.480465   
      6. B(C   6,C   5)                  1.4949         0.424933   
      7. B(C   7,C   5)                  1.4167         0.566337   
      8. B(C   8,C   7)                  1.5123         0.398636   
      9. B(C   9,C   7)                  1.3972         0.608489   
     10. B(C   9,N   0)                  1.3752         0.590837   
     11. B(H  10,C   1)                  1.0916         0.357975   
     12. B(H  11,C   1)                  1.0914         0.358197   
     13. B(H  12,C   1)                  1.0888         0.361658   
     14. B(H  13,C   2)                  1.0848         0.367092   
     15. B(H  14,C   6)                  1.0970         0.350914   
     16. B(H  15,C   6)                  1.0976         0.350159   
     17. B(H  16,C   6)                  1.0891         0.361284   
     18. B(H  17,C   8)                  1.0947         0.353963   
     19. B(H  18,C   8)                  1.0916         0.357948   
     20. B(H  19,C   8)                  1.0946         0.354014   
     21. B(H  20,C   9)                  1.0846         0.367351   
     22. A(C   2,N   0,C   9)          120.5638         0.432466   
     23. A(C   1,N   0,C   9)          118.4771         0.391454   
     24. A(C   1,N   0,C   2)          120.9589         0.401816   
     25. A(N   0,C   1,H  12)          109.0720         0.325026   
     26. A(N   0,C   1,H  11)          109.0324         0.324513   
     27. A(H  10,C   1,H  11)          110.1805         0.290328   
     28. A(H  10,C   1,H  12)          109.7816         0.290766   
     29. A(N   0,C   1,H  10)          109.0345         0.324480   
     30. A(H  11,C   1,H  12)          109.7159         0.290795   
     31. A(C   3,C   2,H  13)          119.7885         0.341473   
     32. A(N   0,C   2,H  13)          119.1111         0.357937   
     33. A(N   0,C   2,C   3)          121.1004         0.422487   
     34. A(O   4,C   3,C   5)          123.2618         0.441072   
     35. A(C   2,C   3,O   4)          118.5697         0.444275   
     36. A(C   2,C   3,C   5)          118.1685         0.399249   
     37. A(C   3,C   5,C   7)          118.1958         0.408110   
     38. A(C   3,C   5,C   6)          119.1054         0.388023   
     39. A(C   6,C   5,C   7)          122.6988         0.399362   
     40. A(H  15,C   6,H  16)          109.2254         0.289714   
     41. A(C   5,C   6,H  16)          111.0169         0.331461   
     42. A(H  14,C   6,H  15)          106.4402         0.288395   
     43. A(C   5,C   6,H  15)          110.1942         0.329750   
     44. A(H  14,C   6,H  16)          109.4647         0.289812   
     45. A(C   5,C   6,H  14)          110.3860         0.329868   
     46. A(C   8,C   7,C   9)          119.2595         0.399917   
     47. A(C   5,C   7,C   9)          118.9284         0.425636   
     48. A(C   5,C   7,C   8)          121.8121         0.394906   
     49. A(H  17,C   8,H  18)          108.2055         0.289783   
     50. A(C   7,C   8,H  18)          111.6164         0.327479   
     51. A(C   7,C   8,H  17)          110.6269         0.326875   
     52. A(H  18,C   8,H  19)          108.2160         0.289790   
     53. A(H  17,C   8,H  19)          107.3998         0.289282   
     54. A(C   7,C   8,H  19)          110.6317         0.326883   
     55. A(N   0,C   9,C   7)          123.0430         0.426082   
     56. A(C   7,C   9,H  20)          121.7815         0.352980   
     57. A(N   0,C   9,H  20)          115.1755         0.349069   
     58. D(H  11,C   1,N   0,C   2)   -121.5422         0.013063   
     59. D(H  10,C   1,N   0,C   2)    118.1232         0.013063   
     60. D(H  12,C   1,N   0,C   2)     -1.7500         0.013063   
     61. D(H  12,C   1,N   0,C   9)    178.4127         0.013063   
     62. D(H  11,C   1,N   0,C   9)     58.6205         0.013063   
     63. D(H  10,C   1,N   0,C   9)    -61.7140         0.013063   
     64. D(H  13,C   2,N   0,C   9)   -179.9982         0.038745   
     65. D(C   3,C   2,N   0,C   1)   -179.8464         0.038745   
     66. D(H  13,C   2,N   0,C   1)      0.1680         0.038745   
     67. D(C   3,C   2,N   0,C   9)     -0.0126         0.038745   
     68. D(C   5,C   3,C   2,H  13)    179.9883         0.017034   
     69. D(C   5,C   3,C   2,N   0)      0.0028         0.017034   
     70. D(O   4,C   3,C   2,H  13)      0.0057         0.017034   
     71. D(O   4,C   3,C   2,N   0)   -179.9799         0.017034   
     72. D(C   6,C   5,C   3,C   2)    179.9363         0.015717   
     73. D(C   7,C   5,C   3,O   4)    179.9887         0.015717   
     74. D(C   7,C   5,C   3,C   2)      0.0069         0.015717   
     75. D(C   6,C   5,C   3,O   4)     -0.0819         0.015717   
     76. D(H  16,C   6,C   5,C   7)   -178.7072         0.013343   
     77. D(H  16,C   6,C   5,C   3)      1.3668         0.013343   
     78. D(H  15,C   6,C   5,C   7)     60.1501         0.013343   
     79. D(H  14,C   6,C   5,C   7)    -57.1329         0.013343   
     80. D(H  14,C   6,C   5,C   3)    122.9410         0.013343   
     81. D(H  15,C   6,C   5,C   3)   -119.7760         0.013343   
     82. D(C   9,C   7,C   5,C   6)   -179.9335         0.021990   
     83. D(C   9,C   7,C   5,C   3)     -0.0068         0.021990   
     84. D(C   8,C   7,C   5,C   6)      0.0759         0.021990   
     85. D(C   8,C   7,C   5,C   3)   -179.9974         0.021990   
     86. D(H  18,C   8,C   7,C   5)   -179.8686         0.011797   
     87. D(H  17,C   8,C   7,C   9)   -120.4057         0.011797   
     88. D(H  17,C   8,C   7,C   5)     59.5849         0.011797   
     89. D(H  19,C   8,C   7,C   9)    120.7038         0.011797   
     90. D(H  19,C   8,C   7,C   5)    -59.3057         0.011797   
     91. D(H  18,C   8,C   7,C   9)      0.1408         0.011797   
     92. D(H  20,C   9,C   7,C   8)      0.0014         0.025564   
     93. D(H  20,C   9,C   7,C   5)   -179.9895         0.025564   
     94. D(N   0,C   9,C   7,C   8)    179.9880         0.025564   
     95. D(N   0,C   9,C   7,C   5)     -0.0028         0.025564   
     96. D(H  20,C   9,N   0,C   2)   -179.9996         0.028068   
     97. D(H  20,C   9,N   0,C   1)     -0.1617         0.028068   
     98. D(C   7,C   9,N   0,C   2)      0.0129         0.028068   
     99. D(C   7,C   9,N   0,C   1)    179.8508         0.028068   
    -----------------------------------------------------------------

Number of atoms                         .... 21
Number of degrees of freedom            .... 99

         *************************************************************
         *                GEOMETRY OPTIMIZATION CYCLE   1            *
         *************************************************************
---------------------------------
CARTESIAN COORDINATES (ANGSTROEM)
---------------------------------
  N     -1.673229    0.012208   -0.019092
  C     -3.159410   -0.049754   -0.040751
  C     -1.035013    1.184362   -0.006610
  C      0.414076    1.248375    0.011188
  O      0.966500    2.379181    0.022853
  C      1.160193   -0.008319    0.015054
  C      2.654456    0.033227    0.031854
  C      0.428378   -1.221335    0.001066
  C      1.116890   -2.567837    0.003912
  C     -0.967713   -1.168234   -0.015605
  H     -3.481645   -0.548050   -0.956984
  H     -3.505197   -0.606301    0.832137
  H     -3.558176    0.963021   -0.012274
  H     -1.614949    2.101084   -0.009670
  H      3.042374   -0.518165    0.897284
  H      3.057389   -0.464459   -0.859620
  H      3.016327    1.059961    0.063772
  H      1.743395   -2.678726    0.894708
  H      0.396507   -3.387896   -0.010634
  H      1.768823   -2.669535   -0.869516
  H     -1.573475   -2.067807   -0.026572

----------------------------
CARTESIAN COORDINATES (A.U.)
----------------------------
  NO LB      ZA    FRAG     MASS         X           Y           Z
   0 N     7.0000    0    14.007   -3.161945    0.023070   -0.036080
   1 C     6.0000    0    12.011   -5.970419   -0.094022   -0.077009
   2 C     6.0000    0    12.011   -1.955892    2.238119   -0.012491
   3 C     6.0000    0    12.011    0.782489    2.359087    0.021142
   4 O     8.0000    0    15.999    1.826420    4.496001    0.043186
   5 C     6.0000    0    12.011    2.192447   -0.015721    0.028448
   6 C     6.0000    0    12.011    5.016196    0.062789    0.060195
   7 C     6.0000    0    12.011    0.809516   -2.307988    0.002014
   8 C     6.0000    0    12.011    2.110616   -4.852509    0.007393
   9 C     6.0000    0    12.011   -1.828712   -2.207643   -0.029489
  10 H     1.0000    0     1.008   -6.579355   -1.035664   -1.808437
  11 H     1.0000    0     1.008   -6.623862   -1.145743    1.572511
  12 H     1.0000    0     1.008   -6.723978    1.819845   -0.023194
  13 H     1.0000    0     1.008   -3.051811    3.970474   -0.018274
  14 H     1.0000    0     1.008    5.749253   -0.979190    1.695622
  15 H     1.0000    0     1.008    5.777628   -0.877699   -1.624446
  16 H     1.0000    0     1.008    5.700032    2.003036    0.120512
  17 H     1.0000    0     1.008    3.294539   -5.062059    1.690753
  18 H     1.0000    0     1.008    0.749289   -6.402195   -0.020095
  19 H     1.0000    0     1.008    3.342592   -5.044689   -1.643148
  20 H     1.0000    0     1.008   -2.973437   -3.907590   -0.050214

--------------------------------
INTERNAL COORDINATES (ANGSTROEM)
--------------------------------
 N      0   0   0     0.000000000000     0.00000000     0.00000000
 C      1   0   0     1.487629136728     0.00000000     0.00000000
 C      1   2   0     1.334697996929   120.95886145     0.00000000
 C      3   1   2     1.450611173984   121.10044541   180.15359050
 O      4   3   1     1.258583008489   118.56967216   180.02014993
 C      4   3   1     1.461501712568   118.16849395     0.00000000
 C      6   4   3     1.494935467442   119.10539701   179.93625947
 C      6   4   3     1.416741053340   118.19580588     0.00000000
 C      8   6   4     1.512325076623   121.81205864   180.00259104
 C      1   2   3     1.375212799054   118.47711779   180.16276375
 H      2   1   3     1.091611279812   109.03454505   118.12321394
 H      2   1   3     1.091442441748   109.03243989   238.45778225
 H      2   1   3     1.088824482439   109.07195266   358.24995045
 H      3   1   2     1.084764982231   119.11106659     0.16796399
 H      7   6   4     1.097033701074   110.38601275   122.94100047
 H      7   6   4     1.097620162002   110.19420516   240.22403188
 H      7   6   4     1.089106289643   111.01690310     1.36677260
 H      9   8   6     1.094678869693   110.62688961    59.58488618
 H      9   8   6     1.091631619288   111.61638867   180.13135259
 H      9   8   6     1.094640034539   110.63167087   300.69431862
 H     10   1   2     1.084573515386   115.17550179   359.83827822

---------------------------
INTERNAL COORDINATES (A.U.)
---------------------------
 N      0   0   0     0.000000000000     0.00000000     0.00000000
 C      1   0   0     2.811211657257     0.00000000     0.00000000
 C      1   2   0     2.522213685689   120.95886145     0.00000000
 C      3   1   2     2.741257845636   121.10044541   180.15359050
 O      4   3   1     2.378377202851   118.56967216   180.02014993
 C      4   3   1     2.761837981010   118.16849395     0.00000000
 C      6   4   3     2.825018621350   119.10539701   179.93625947
 C      6   4   3     2.677252593497   118.19580588     0.00000000
 C      8   6   4     2.857880220279   121.81205864   180.00259104
 C      1   2   3     2.598775566075   118.47711779   180.16276375
 H      2   1   3     2.062846363543   109.03454505   118.12321394
 H      2   1   3     2.062527305841   109.03243989   238.45778225
 H      2   1   3     2.057580079719   109.07195266   358.24995045
 H      3   1   2     2.049908736084   119.11106659     0.16796399
 H      7   6   4     2.073093254712   110.38601275   122.94100047
 H      7   6   4     2.074201505253   110.19420516   240.22403188
 H      7   6   4     2.058112618157   111.01690310     1.36677260
 H      9   8   6     2.068643268310   110.62688961    59.58488618
 H      9   8   6     2.062884799583   111.61638867   180.13135259
 H      9   8   6     2.068569880504   110.63167087   300.69431862
 H     10   1   2     2.049546916183   115.17550179   359.83827822

---------------------
BASIS SET INFORMATION
---------------------
There are 4 groups of distinct atoms

 Group   1 Type N   : 11s6p2d1f contracted to 5s3p2d1f pattern {62111/411/11/1}
 Group   2 Type C   : 11s6p2d1f contracted to 5s3p2d1f pattern {62111/411/11/1}
 Group   3 Type O   : 11s6p2d1f contracted to 5s3p2d1f pattern {62111/411/11/1}
 Group   4 Type H   : 5s1p contracted to 3s1p pattern {311/1}

Atom   0N    basis set group =>   1
Atom   1C    basis set group =>   2
Atom   2C    basis set group =>   2
Atom   3C    basis set group =>   2
Atom   4O    basis set group =>   3
Atom   5C    basis set group =>   2
Atom   6C    basis set group =>   2
Atom   7C    basis set group =>   2
Atom   8C    basis set group =>   2
Atom   9C    basis set group =>   2
Atom  10H    basis set group =>   4
Atom  11H    basis set group =>   4
Atom  12H    basis set group =>   4
Atom  13H    basis set group =>   4
Atom  14H    basis set group =>   4
Atom  15H    basis set group =>   4
Atom  16H    basis set group =>   4
Atom  17H    basis set group =>   4
Atom  18H    basis set group =>   4
Atom  19H    basis set group =>   4
Atom  20H    basis set group =>   4
---------------------------------
AUXILIARY/J BASIS SET INFORMATION
---------------------------------
There are 4 groups of distinct atoms

 Group   1 Type N   : 12s5p4d2f1g contracted to 6s4p3d1f1g pattern {711111/2111/211/2/1}
 Group   2 Type C   : 12s5p4d2f1g contracted to 6s4p3d1f1g pattern {711111/2111/211/2/1}
 Group   3 Type O   : 12s5p4d2f1g contracted to 6s4p3d1f1g pattern {711111/2111/211/2/1}
 Group   4 Type H   : 5s2p1d contracted to 3s1p1d pattern {311/2/1}

Atom   0N    basis set group =>   1
Atom   1C    basis set group =>   2
Atom   2C    basis set group =>   2
Atom   3C    basis set group =>   2
Atom   4O    basis set group =>   3
Atom   5C    basis set group =>   2
Atom   6C    basis set group =>   2
Atom   7C    basis set group =>   2
Atom   8C    basis set group =>   2
Atom   9C    basis set group =>   2
Atom  10H    basis set group =>   4
Atom  11H    basis set group =>   4
Atom  12H    basis set group =>   4
Atom  13H    basis set group =>   4
Atom  14H    basis set group =>   4
Atom  15H    basis set group =>   4
Atom  16H    basis set group =>   4
Atom  17H    basis set group =>   4
Atom  18H    basis set group =>   4
Atom  19H    basis set group =>   4
Atom  20H    basis set group =>   4


           ************************************************************
           *        Program running with 16 parallel MPI-processes    *
           *              working on a common directory               *
           ************************************************************
------------------------------------------------------------------------------
                           ORCA GTO INTEGRAL CALCULATION
                           -- RI-GTO INTEGRALS CHOSEN --
------------------------------------------------------------------------------
------------------------------------------------------------------------------
                   ___                                                        
                  /   \      - P O W E R E D   B Y -                         
                 /     \                                                     
                 |  |  |   _    _      __       _____    __    __             
                 |  |  |  | |  | |    /  \     |  _  \  |  |  /  |          
                  \  \/   | |  | |   /    \    | | | |  |  | /  /          
                 / \  \   | |__| |  /  /\  \   | |_| |  |  |/  /          
                |  |  |   |  __  | /  /__\  \  |    /   |      \           
                |  |  |   | |  | | |   __   |  |    \   |  |\   \          
                \     /   | |  | | |  |  |  |  | |\  \  |  | \   \       
                 \___/    |_|  |_| |__|  |__|  |_| \__\ |__|  \__/        
                                                                              
                      - O R C A' S   B I G   F R I E N D -                    
                                      &                                       
                       - I N T E G R A L  F E E D E R -                       
                                                                              
 v1 FN, 2020, v2 2021                                                         
------------------------------------------------------------------------------


Reading SHARK input file freq.SHARKINP.tmp ... ok
----------------------
SHARK INTEGRAL PACKAGE
----------------------

Number of atoms                             ...     21
Number of basis functions                   ...    376
Number of shells                            ...    154
Maximum angular momentum                    ...      3
Integral batch strategy                     ... SHARK/LIBINT Hybrid
RI-J (if used) integral strategy            ... SPLIT-RIJ (Revised 2003 algorithm where possible)
Printlevel                                  ...      1
Contraction scheme used                     ... SEGMENTED contraction
Coulomb Range Separation                    ... NOT USED
Exchange Range Separation                   ... NOT USED
Finite Nucleus Model                        ... NOT USED
Auxiliary Coulomb fitting basis             ... AVAILABLE
   # of basis functions in Aux-J            ...    611
   # of shells in Aux-J                     ...    205
   Maximum angular momentum in Aux-J        ...      4
Auxiliary J/K fitting basis                 ... NOT available
Auxiliary Correlation fitting basis         ... NOT available
Auxiliary 'external' fitting basis          ... NOT available
Integral threshold                          ...     2.500000e-11
Primitive cut-off                           ...     2.500000e-12
Primitive pair pre-selection threshold      ...     2.500000e-12

Calculating pre-screening integrals         ... done (  0.0 sec) Dimension = 154
Organizing shell pair data                  ... done (  0.1 sec)
Shell pair information
Total number of shell pairs                 ...     11935
Shell pairs after pre-screening             ...     10489
Total number of primitive shell pairs       ...     35764
Primitive shell pairs kept                  ...     23074
          la=0 lb=0:   2921 shell pairs
          la=1 lb=0:   3003 shell pairs
          la=1 lb=1:    789 shell pairs
          la=2 lb=0:   1484 shell pairs
          la=2 lb=1:    756 shell pairs
          la=2 lb=2:    198 shell pairs
          la=3 lb=0:    717 shell pairs
          la=3 lb=1:    379 shell pairs
          la=3 lb=2:    190 shell pairs
          la=3 lb=3:     52 shell pairs

Calculating one electron integrals          ... done (  0.0 sec)
Calculating RI/J V-Matrix + Cholesky decomp.... done (  0.1 sec)
Calculating Nuclear repulsion               ... done (  0.0 sec) ENN=    518.026517338124 Eh

SHARK setup successfully completed in   0.8 seconds

Maximum memory used throughout the entire GTOINT-calculation: 23.5 MB


           ************************************************************
           *        Program running with 16 parallel MPI-processes    *
           *              working on a common directory               *
           ************************************************************
-------------------------------------------------------------------------------
                                 ORCA SCF
-------------------------------------------------------------------------------

------------
SCF SETTINGS
------------
Hamiltonian:
 Density Functional     Method          .... DFT(GTOs)
 Exchange Functional    Exchange        .... M062X
 Correlation Functional Correlation     .... M062X
 Gradients option       PostSCFGGA      .... off
 Hybrid DFT is turned on
   Fraction HF Exchange ScalHFX         ....  0.540000
   Scaling of DF-GGA-X  ScalDFX         ....  0.460000
   Scaling of DF-GGA-C  ScalDFC         ....  1.000000
   Scaling of DF-LDA-C  ScalLDAC        ....  1.000000
   Perturbative correction              ....  0.000000
   Density functional embedding theory  .... OFF
 RI-approximation to the Coulomb term is turned on
   Number of AuxJ basis functions       .... 611
   RIJ-COSX (HFX calculated with COS-X)).... on


General Settings:
 Integral files         IntName         .... freq
 Hartree-Fock type      HFTyp           .... RHF
 Total Charge           Charge          ....    0
 Multiplicity           Mult            ....    1
 Number of Electrons    NEL             ....   74
 Basis Dimension        Dim             ....  376
 Nuclear Repulsion      ENuc            ....    518.0265173381 Eh

Convergence Acceleration:
 DIIS                   CNVDIIS         .... on
   Start iteration      DIISMaxIt       ....    12
   Startup error        DIISStart       ....  0.200000
   # of expansion vecs  DIISMaxEq       ....     5
   Bias factor          DIISBfac        ....   1.050
   Max. coefficient     DIISMaxC        ....  10.000
 Trust-Rad. Augm. Hess. CNVTRAH         .... auto
   Auto Start mean grad. ratio tolernc. ....  1.125000
   Auto Start start iteration           ....    20
   Auto Start num. interpolation iter.  ....    10
   Max. Number of Micro iterations      ....    16
   Max. Number of Macro iterations      .... Maxiter - #DIIS iter
   Number of Davidson start vectors     ....     2
   Converg. threshold I  (grad. norm)   ....   1.000e-05
   Converg. threshold II (energy diff.) ....   1.000e-08
   Grad. Scal. Fac. for Micro threshold ....   0.100
   Minimum threshold for Micro iter.    ....   0.010
   NR start threshold (gradient norm)   ....   0.001
   Initial trust radius                 ....   0.400
   Minimum AH scaling param. (alpha)    ....   1.000
   Maximum AH scaling param. (alpha)    .... 1000.000
   Orbital update algorithm             .... Taylor
   White noise on init. David. guess    .... on
   Maximum white noise                  ....   0.010
   Quad. conv. algorithm                .... NR
 SOSCF                  CNVSOSCF        .... on
   Start iteration      SOSCFMaxIt      ....   150
   Startup grad/error   SOSCFStart      ....  0.003300
 Level Shifting         CNVShift        .... on
   Level shift para.    LevelShift      ....    0.2500
   Turn off err/grad.   ShiftErr        ....    0.0010
 Zerner damping         CNVZerner       .... off
 Static damping         CNVDamp         .... on
   Fraction old density DampFac         ....    0.7000
   Max. Damping (<1)    DampMax         ....    0.9800
   Min. Damping (>=0)   DampMin         ....    0.0000
   Turn off err/grad.   DampErr         ....    0.1000
 Fernandez-Rico         CNVRico         .... off

SCF Procedure:
 Maximum # iterations   MaxIter         ....   125
 SCF integral mode      SCFMode         .... Direct
   Integral package                     .... SHARK and LIBINT hybrid scheme
 Reset frequency        DirectResetFreq ....    20
 Integral Threshold     Thresh          ....  2.500e-11 Eh
 Primitive CutOff       TCut            ....  2.500e-12 Eh

Convergence Tolerance:
 Convergence Check Mode ConvCheckMode   .... Total+1el-Energy
 Convergence forced     ConvForced      .... 0
 Energy Change          TolE            ....  1.000e-08 Eh
 1-El. energy change                    ....  1.000e-05 Eh
 Orbital Gradient       TolG            ....  1.000e-05
 Orbital Rotation angle TolX            ....  1.000e-05
 DIIS Error             TolErr          ....  5.000e-07


Diagonalization of the overlap matrix:
Smallest eigenvalue                        ... 3.642e-05
Time for diagonalization                   ...    0.080 sec
Threshold for overlap eigenvalues          ... 1.000e-08
Number of eigenvalues below threshold      ... 0
Time for construction of square roots      ...    0.038 sec
Total time needed                          ...    0.119 sec

Time for model grid setup =    0.189 sec

------------------------------
INITIAL GUESS: MODEL POTENTIAL
------------------------------
Loading Hartree-Fock densities                     ... done
Calculating cut-offs                               ... done
Initializing the effective Hamiltonian             ... done
Setting up the integral package (SHARK)            ... done
Starting the Coulomb interaction                   ... done (   0.2 sec)
Reading the grid                                   ... done
Mapping shells                                     ... done
Starting the XC term evaluation                    ... done (   0.1 sec)
  promolecular density results
     # of electrons  =     73.991465613
     EX              =    -58.833030722
     EC              =     -2.451694090
     EX+EC           =    -61.284724812
Transforming the Hamiltonian                       ... done (   0.0 sec)
Diagonalizing the Hamiltonian                      ... done (   0.0 sec)
Back transforming the eigenvectors                 ... done (   0.0 sec)
Now organizing SCF variables                       ... done
                      ------------------
                      INITIAL GUESS DONE (   0.6 sec)
                      ------------------
-------------------
DFT GRID GENERATION
-------------------

General Integration Accuracy     IntAcc      ... 4.388
Radial Grid Type                 RadialGrid  ... OptM3 with GC (2021)
Angular Grid (max. ang.)         AngularGrid ... 4 (Lebedev-302)
Angular grid pruning method      GridPruning ... 4 (adaptive)
Weight generation scheme         WeightScheme... Becke
Basis function cutoff            BFCut       ... 1.0000e-11
Integration weight cutoff        WCut        ... 1.0000e-14
Angular grids for H and He will be reduced by one unit
Partially contracted basis set               ... off
Rotationally invariant grid construction     ... off

Total number of grid points                  ...    95327
Total number of batches                      ...     1501
Average number of points per batch           ...       63
Average number of grid points per atom       ...     4539
Time for grid setup =    0.486 sec

--------------------
COSX GRID GENERATION
--------------------

GRIDX 1
-------
General Integration Accuracy     IntAcc      ... 3.816
Radial Grid Type                 RadialGrid  ... OptM3 with GC (2021)
Angular Grid (max. ang.)         AngularGrid ... 1 (Lebedev-50)
Angular grid pruning method      GridPruning ... 4 (adaptive)
Weight generation scheme         WeightScheme... Becke
Basis function cutoff            BFCut       ... 1.0000e-11
Integration weight cutoff        WCut        ... 1.0000e-14
Angular grids for H and He will be reduced by one unit
Partially contracted basis set               ... on
Rotationally invariant grid construction     ... off

Total number of grid points                  ...    12214
Total number of batches                      ...      201
Average number of points per batch           ...       60
Average number of grid points per atom       ...      582
UseSFitting                                  ... on

GRIDX 2
-------
General Integration Accuracy     IntAcc      ... 4.020
Radial Grid Type                 RadialGrid  ... OptM3 with GC (2021)
Angular Grid (max. ang.)         AngularGrid ... 2 (Lebedev-110)
Angular grid pruning method      GridPruning ... 4 (adaptive)
Weight generation scheme         WeightScheme... Becke
Basis function cutoff            BFCut       ... 1.0000e-11
Integration weight cutoff        WCut        ... 1.0000e-14
Angular grids for H and He will be reduced by one unit
Partially contracted basis set               ... on
Rotationally invariant grid construction     ... off

Total number of grid points                  ...    26111
Total number of batches                      ...      418
Average number of points per batch           ...       62
Average number of grid points per atom       ...     1243
UseSFitting                                  ... on

GRIDX 3
-------
General Integration Accuracy     IntAcc      ... 4.338
Radial Grid Type                 RadialGrid  ... OptM3 with GC (2021)
Angular Grid (max. ang.)         AngularGrid ... 3 (Lebedev-194)
Angular grid pruning method      GridPruning ... 4 (adaptive)
Weight generation scheme         WeightScheme... Becke
Basis function cutoff            BFCut       ... 1.0000e-11
Integration weight cutoff        WCut        ... 1.0000e-14
Angular grids for H and He will be reduced by one unit
Partially contracted basis set               ... on
Rotationally invariant grid construction     ... off

Total number of grid points                  ...    57267
Total number of batches                      ...      907
Average number of points per batch           ...       63
Average number of grid points per atom       ...     2727
UseSFitting                                  ... on

Time for X-Grid setup             =    1.108 sec

--------------
SCF ITERATIONS
--------------
ITER       Energy         Delta-E        Max-DP      RMS-DP      [F,P]     Damp
               ***  Starting incremental Fock matrix formation  ***
  0   -441.0742061810   0.000000000000 0.35374294  0.00232909  0.3396219 0.7000
  1   -441.2133387411  -0.139132560133 0.30221954  0.00192716  0.1537254 0.7000
                               ***Turning on DIIS***
  2   -441.2761510085  -0.062812267351 0.30379431  0.00247548  0.0519752 0.0000
  3   -441.3763932696  -0.100242261111 0.33808147  0.00199626  0.0869619 0.0000
  4   -441.3948176961  -0.018424426551 0.05287818  0.00037886  0.0176932 0.0000
  5   -441.3957918340  -0.000974137902 0.03601918  0.00022580  0.0073326 0.0000
                      *** Initiating the SOSCF procedure ***
                           *** Shutting down DIIS ***
                      *** Re-Reading the Fockian *** 
                      *** Removing any level shift *** 
ITER      Energy       Delta-E        Grad      Rot      Max-DP    RMS-DP
  6   -441.39589629  -0.0001044564  0.000541  0.000541  0.020704  0.000141
               *** Restarting incremental Fock matrix formation ***
  7   -441.39591891  -0.0000226174  0.000434  0.001619  0.011272  0.000068
  8   -441.39591768   0.0000012305  0.000540  0.000881  0.001180  0.000014
  9   -441.39592489  -0.0000072138  0.000082  0.000284  0.001289  0.000008
 10   -441.39592503  -0.0000001349  0.000065  0.000280  0.000503  0.000004
 11   -441.39592509  -0.0000000642  0.000023  0.000068  0.000058  0.000001
 12   -441.39592511  -0.0000000206  0.000007  0.000018  0.000206  0.000001
 13   -441.39592512  -0.0000000059  0.000004  0.000008  0.000034  0.000000
                  ***Gradient check signals convergence***
              ***Rediagonalizing the Fockian in SOSCF/NRSCF***

               *****************************************************
               *                     SUCCESS                       *
               *           SCF CONVERGED AFTER  14 CYCLES          *
               *****************************************************

Old exchange energy                            =    -32.485753963 Eh
New exchange energy                            =    -32.485738188 Eh
Exchange energy change after final integration =      0.000015774 Eh
Total energy after final integration           =   -441.395909337 Eh
Final COS-X integration done in                =     3.170 sec

----------------
TOTAL SCF ENERGY
----------------

Total Energy       :         -441.39590934 Eh          -12010.99332 eV

Components:
Nuclear Repulsion  :          518.02651734 Eh           14096.21817 eV
Electronic Energy  :         -959.42242668 Eh          -26107.21149 eV
One Electron Energy:        -1623.88155262 Eh          -44188.06352 eV
Two Electron Energy:          664.45912594 Eh           18080.85203 eV
Max COSX asymmetry :            0.00000373 Eh               0.00010 eV

Virial components:
Potential Energy   :         -880.23958107 Eh          -23952.53672 eV
Kinetic Energy     :          438.84367174 Eh           11941.54340 eV
Virial Ratio       :            2.00581582


DFT components:
N(Alpha)           :       37.000077673914 electrons
N(Beta)            :       37.000077673914 electrons
N(Total)           :       74.000155347827 electrons
E(XC)              :      -30.339468834057 Eh       
DFET-embed. en.    :        0.000000000000 Eh       

---------------
SCF CONVERGENCE
---------------

  Last Energy change         ...    4.9899e-09  Tolerance :   1.0000e-08
  Last MAX-Density change    ...    1.8874e-15  Tolerance :   1.0000e-07
  Last RMS-Density change    ...    1.7509e-17  Tolerance :   5.0000e-09
  Last Orbital Gradient      ...    2.1345e-06  Tolerance :   1.0000e-05
  Last Orbital Rotation      ...    2.1507e-06  Tolerance :   1.0000e-05

             **** THE GBW FILE WAS UPDATED (freq.gbw) ****
             **** DENSITY freq.scfp WAS UPDATED ****
             **** ENERGY FILE WAS UPDATED (freq.en.tmp) ****
             **** THE GBW FILE WAS UPDATED (freq.gbw) ****
             **** DENSITY freq.scfp WAS UPDATED ****
----------------
ORBITAL ENERGIES
----------------

  NO   OCC          E(Eh)            E(eV) 
   0   2.0000     -19.537948      -531.6546 
   1   2.0000     -14.858222      -404.3128 
   2   2.0000     -10.612992      -288.7942 
   3   2.0000     -10.587380      -288.0973 
   4   2.0000     -10.584508      -288.0191 
   5   2.0000     -10.584372      -288.0154 
   6   2.0000     -10.567328      -287.5516 
   7   2.0000     -10.548587      -287.0416 
   8   2.0000     -10.546018      -286.9717 
   9   2.0000     -10.520489      -286.2771 
  10   2.0000      -1.126261       -30.6471 
  11   2.0000      -1.080771       -29.4093 
  12   2.0000      -0.932607       -25.3775 
  13   2.0000      -0.866045       -23.5663 
  14   2.0000      -0.847729       -23.0679 
  15   2.0000      -0.815479       -22.1903 
  16   2.0000      -0.768099       -20.9010 
  17   2.0000      -0.684779       -18.6338 
  18   2.0000      -0.681966       -18.5572 
  19   2.0000      -0.605266       -16.4701 
  20   2.0000      -0.594674       -16.1819 
  21   2.0000      -0.571939       -15.5632 
  22   2.0000      -0.534047       -14.5322 
  23   2.0000      -0.515781       -14.0351 
  24   2.0000      -0.508542       -13.8381 
  25   2.0000      -0.499838       -13.6013 
  26   2.0000      -0.478191       -13.0122 
  27   2.0000      -0.469600       -12.7785 
  28   2.0000      -0.467366       -12.7177 
  29   2.0000      -0.459018       -12.4905 
  30   2.0000      -0.451210       -12.2780 
  31   2.0000      -0.417922       -11.3722 
  32   2.0000      -0.409141       -11.1333 
  33   2.0000      -0.399568       -10.8728 
  34   2.0000      -0.328840        -8.9482 
  35   2.0000      -0.284285        -7.7358 
  36   2.0000      -0.232003        -6.3131 
  37   0.0000      -0.020430        -0.5559 
  38   0.0000       0.035950         0.9783 
  39   0.0000       0.050269         1.3679 
  40   0.0000       0.067997         1.8503 
  41   0.0000       0.086952         2.3661 
  42   0.0000       0.094681         2.5764 
  43   0.0000       0.104236         2.8364 
  44   0.0000       0.124205         3.3798 
  45   0.0000       0.127880         3.4798 
  46   0.0000       0.129321         3.5190 
  47   0.0000       0.141668         3.8550 
  48   0.0000       0.158580         4.3152 
  49   0.0000       0.159586         4.3425 
  50   0.0000       0.167235         4.5507 
  51   0.0000       0.179861         4.8943 
  52   0.0000       0.188353         5.1253 
  53   0.0000       0.199941         5.4407 
  54   0.0000       0.202675         5.5151 
  55   0.0000       0.220701         6.0056 
  56   0.0000       0.221625         6.0307 
  57   0.0000       0.239227         6.5097 
  58   0.0000       0.243081         6.6146 
  59   0.0000       0.252063         6.8590 
  60   0.0000       0.260694         7.0938 
  61   0.0000       0.263861         7.1800 
  62   0.0000       0.285021         7.7558 
  63   0.0000       0.287056         7.8112 
  64   0.0000       0.299344         8.1456 
  65   0.0000       0.315307         8.5799 
  66   0.0000       0.332814         9.0563 
  67   0.0000       0.333444         9.0735 
  68   0.0000       0.341830         9.3017 
  69   0.0000       0.342672         9.3246 
  70   0.0000       0.355508         9.6739 
  71   0.0000       0.357118         9.7177 
  72   0.0000       0.379854        10.3364 
  73   0.0000       0.386389        10.5142 
  74   0.0000       0.402829        10.9615 
  75   0.0000       0.418583        11.3902 
  76   0.0000       0.428436        11.6583 
  77   0.0000       0.430514        11.7149 
  78   0.0000       0.435659        11.8549 
  79   0.0000       0.440214        11.9788 
  80   0.0000       0.450792        12.2667 
  81   0.0000       0.463783        12.6202 
  82   0.0000       0.467921        12.7328 
  83   0.0000       0.472286        12.8515 
  84   0.0000       0.494117        13.4456 
  85   0.0000       0.495830        13.4922 
  86   0.0000       0.499960        13.6046 
  87   0.0000       0.506987        13.7958 
  88   0.0000       0.521331        14.1861 
  89   0.0000       0.521817        14.1994 
  90   0.0000       0.534446        14.5430 
  91   0.0000       0.539703        14.6861 
  92   0.0000       0.546405        14.8684 
  93   0.0000       0.553848        15.0710 
  94   0.0000       0.567548        15.4438 
  95   0.0000       0.582451        15.8493 
  96   0.0000       0.591535        16.0965 
  97   0.0000       0.594657        16.1814 
  98   0.0000       0.618009        16.8169 
  99   0.0000       0.627668        17.0797 
 100   0.0000       0.653416        17.7804 
 101   0.0000       0.664526        18.0827 
 102   0.0000       0.668102        18.1800 
 103   0.0000       0.689584        18.7645 
 104   0.0000       0.695259        18.9190 
 105   0.0000       0.703809        19.1516 
 106   0.0000       0.709806        19.3148 
 107   0.0000       0.715607        19.4727 
 108   0.0000       0.729306        19.8454 
 109   0.0000       0.752841        20.4859 
 110   0.0000       0.789990        21.4967 
 111   0.0000       0.800191        21.7743 
 112   0.0000       0.812105        22.0985 
 113   0.0000       0.822402        22.3787 
 114   0.0000       0.824455        22.4346 
 115   0.0000       0.837696        22.7949 
 116   0.0000       0.838625        22.8201 
 117   0.0000       0.855546        23.2806 
 118   0.0000       0.882888        24.0246 
 119   0.0000       0.901879        24.5414 
 120   0.0000       0.929764        25.3002 
 121   0.0000       0.945115        25.7179 
 122   0.0000       0.951133        25.8816 
 123   0.0000       0.974029        26.5047 
 124   0.0000       0.989530        26.9265 
 125   0.0000       0.992647        27.0113 
 126   0.0000       1.008911        27.4539 
 127   0.0000       1.046246        28.4698 
 128   0.0000       1.053874        28.6774 
 129   0.0000       1.058562        28.8049 
 130   0.0000       1.086382        29.5620 
 131   0.0000       1.096602        29.8400 
 132   0.0000       1.119720        30.4691 
 133   0.0000       1.133220        30.8365 
 134   0.0000       1.138749        30.9869 
 135   0.0000       1.173103        31.9218 
 136   0.0000       1.196141        32.5486 
 137   0.0000       1.205134        32.7934 
 138   0.0000       1.208695        32.8903 
 139   0.0000       1.241511        33.7832 
 140   0.0000       1.249134        33.9907 
 141   0.0000       1.272237        34.6193 
 142   0.0000       1.303632        35.4736 
 143   0.0000       1.334192        36.3052 
 144   0.0000       1.341982        36.5172 
 145   0.0000       1.364766        37.1372 
 146   0.0000       1.391669        37.8692 
 147   0.0000       1.409944        38.3665 
 148   0.0000       1.419531        38.6274 
 149   0.0000       1.426959        38.8295 
 150   0.0000       1.446236        39.3541 
 151   0.0000       1.473643        40.0999 
 152   0.0000       1.494277        40.6614 
 153   0.0000       1.506207        40.9860 
 154   0.0000       1.523547        41.4578 
 155   0.0000       1.527767        41.5727 
 156   0.0000       1.540078        41.9077 
 157   0.0000       1.555613        42.3304 
 158   0.0000       1.565481        42.5989 
 159   0.0000       1.574097        42.8333 
 160   0.0000       1.583861        43.0991 
 161   0.0000       1.586470        43.1700 
 162   0.0000       1.601088        43.5678 
 163   0.0000       1.601996        43.5925 
 164   0.0000       1.605365        43.6842 
 165   0.0000       1.633488        44.4495 
 166   0.0000       1.661812        45.2202 
 167   0.0000       1.676809        45.6283 
 168   0.0000       1.679714        45.7073 
 169   0.0000       1.697485        46.1909 
 170   0.0000       1.705154        46.3996 
 171   0.0000       1.713500        46.6267 
 172   0.0000       1.720303        46.8118 
 173   0.0000       1.735956        47.2378 
 174   0.0000       1.762769        47.9674 
 175   0.0000       1.765204        48.0337 
 176   0.0000       1.794651        48.8349 
 177   0.0000       1.836189        49.9652 
 178   0.0000       1.840914        50.0938 
 179   0.0000       1.861533        50.6549 
 180   0.0000       1.901063        51.7306 
 181   0.0000       1.905086        51.8400 
 182   0.0000       1.918839        52.2143 
 183   0.0000       1.951092        53.0919 
 184   0.0000       1.973061        53.6897 
 185   0.0000       1.991962        54.2041 
 186   0.0000       2.013601        54.7929 
 187   0.0000       2.029798        55.2336 
 188   0.0000       2.037815        55.4518 
 189   0.0000       2.040396        55.5220 
 190   0.0000       2.062927        56.1351 
 191   0.0000       2.076938        56.5164 
 192   0.0000       2.089099        56.8473 
 193   0.0000       2.102879        57.2223 
 194   0.0000       2.108707        57.3808 
 195   0.0000       2.148146        58.4540 
 196   0.0000       2.151660        58.5497 
 197   0.0000       2.209854        60.1332 
 198   0.0000       2.222946        60.4894 
 199   0.0000       2.226812        60.5946 
 200   0.0000       2.236042        60.8458 
 201   0.0000       2.257725        61.4358 
 202   0.0000       2.274288        61.8865 
 203   0.0000       2.285666        62.1961 
 204   0.0000       2.310845        62.8813 
 205   0.0000       2.316335        63.0307 
 206   0.0000       2.335983        63.5653 
 207   0.0000       2.353020        64.0289 
 208   0.0000       2.359387        64.2022 
 209   0.0000       2.382942        64.8431 
 210   0.0000       2.386302        64.9346 
 211   0.0000       2.398760        65.2736 
 212   0.0000       2.401319        65.3432 
 213   0.0000       2.432970        66.2045 
 214   0.0000       2.440623        66.4127 
 215   0.0000       2.456193        66.8364 
 216   0.0000       2.497285        67.9546 
 217   0.0000       2.509504        68.2871 
 218   0.0000       2.521012        68.6002 
 219   0.0000       2.529117        68.8208 
 220   0.0000       2.538312        69.0710 
 221   0.0000       2.553944        69.4963 
 222   0.0000       2.563964        69.7690 
 223   0.0000       2.571416        69.9718 
 224   0.0000       2.586872        70.3924 
 225   0.0000       2.598422        70.7067 
 226   0.0000       2.628030        71.5123 
 227   0.0000       2.635572        71.7175 
 228   0.0000       2.670686        72.6730 
 229   0.0000       2.681720        72.9733 
 230   0.0000       2.696586        73.3778 
 231   0.0000       2.719487        74.0010 
 232   0.0000       2.742153        74.6178 
 233   0.0000       2.776122        75.5421 
 234   0.0000       2.800116        76.1950 
 235   0.0000       2.800746        76.2122 
 236   0.0000       2.838444        77.2380 
 237   0.0000       2.851094        77.5822 
 238   0.0000       2.861099        77.8545 
 239   0.0000       2.880297        78.3769 
 240   0.0000       2.885423        78.5163 
 241   0.0000       2.915997        79.3483 
 242   0.0000       2.917534        79.3901 
 243   0.0000       2.935199        79.8708 
 244   0.0000       2.940318        80.0101 
 245   0.0000       2.945048        80.1388 
 246   0.0000       2.976711        81.0004 
 247   0.0000       2.989703        81.3540 
 248   0.0000       3.024369        82.2973 
 249   0.0000       3.036507        82.6276 
 250   0.0000       3.039766        82.7162 
 251   0.0000       3.047239        82.9196 
 252   0.0000       3.064194        83.3809 
 253   0.0000       3.064987        83.4025 
 254   0.0000       3.073273        83.6280 
 255   0.0000       3.082150        83.8696 
 256   0.0000       3.092936        84.1631 
 257   0.0000       3.123362        84.9910 
 258   0.0000       3.135493        85.3211 
 259   0.0000       3.149173        85.6934 
 260   0.0000       3.160112        85.9910 
 261   0.0000       3.172606        86.3310 
 262   0.0000       3.182478        86.5996 
 263   0.0000       3.194073        86.9152 
 264   0.0000       3.202920        87.1559 
 265   0.0000       3.237413        88.0945 
 266   0.0000       3.241679        88.2106 
 267   0.0000       3.245784        88.3223 
 268   0.0000       3.269676        88.9724 
 269   0.0000       3.278901        89.2234 
 270   0.0000       3.283132        89.3386 
 271   0.0000       3.289252        89.5051 
 272   0.0000       3.298741        89.7633 
 273   0.0000       3.306859        89.9842 
 274   0.0000       3.315139        90.2095 
 275   0.0000       3.328328        90.5684 
 276   0.0000       3.339559        90.8740 
 277   0.0000       3.385871        92.1342 
 278   0.0000       3.394081        92.3576 
 279   0.0000       3.399312        92.5000 
 280   0.0000       3.406799        92.7037 
 281   0.0000       3.411539        92.8327 
 282   0.0000       3.428098        93.2833 
 283   0.0000       3.449057        93.8536 
 284   0.0000       3.459049        94.1255 
 285   0.0000       3.487387        94.8966 
 286   0.0000       3.490276        94.9752 
 287   0.0000       3.504736        95.3687 
 288   0.0000       3.517420        95.7139 
 289   0.0000       3.538328        96.2828 
 290   0.0000       3.556737        96.7837 
 291   0.0000       3.590092        97.6914 
 292   0.0000       3.614017        98.3424 
 293   0.0000       3.631172        98.8092 
 294   0.0000       3.640410        99.0606 
 295   0.0000       3.665959        99.7558 
 296   0.0000       3.684988       100.2736 
 297   0.0000       3.721133       101.2572 
 298   0.0000       3.728322       101.4528 
 299   0.0000       3.764364       102.4336 
 300   0.0000       3.791560       103.1736 
 301   0.0000       3.806593       103.5827 
 302   0.0000       3.820469       103.9602 
 303   0.0000       3.871953       105.3612 
 304   0.0000       3.890714       105.8717 
 305   0.0000       3.894282       105.9688 
 306   0.0000       3.956358       107.6580 
 307   0.0000       3.969593       108.0181 
 308   0.0000       3.991224       108.6067 
 309   0.0000       4.056730       110.3892 
 310   0.0000       4.072114       110.8079 
 311   0.0000       4.079980       111.0219 
 312   0.0000       4.096485       111.4710 
 313   0.0000       4.119412       112.0949 
 314   0.0000       4.143399       112.7476 
 315   0.0000       4.152225       112.9878 
 316   0.0000       4.169795       113.4659 
 317   0.0000       4.183233       113.8316 
 318   0.0000       4.227845       115.0455 
 319   0.0000       4.240185       115.3813 
 320   0.0000       4.260332       115.9295 
 321   0.0000       4.308239       117.2332 
 322   0.0000       4.332918       117.9047 
 323   0.0000       4.334700       117.9532 
 324   0.0000       4.393676       119.5580 
 325   0.0000       4.408883       119.9718 
 326   0.0000       4.456334       121.2630 
 327   0.0000       4.483027       121.9894 
 328   0.0000       4.486756       122.0908 
 329   0.0000       4.524631       123.1215 
 330   0.0000       4.538963       123.5115 
 331   0.0000       4.560223       124.0900 
 332   0.0000       4.622882       125.7950 
 333   0.0000       4.647823       126.4737 
 334   0.0000       4.703877       127.9990 
 335   0.0000       4.802829       130.6916 
 336   0.0000       4.846414       131.8776 
 337   0.0000       4.860234       132.2537 
 338   0.0000       4.936224       134.3215 
 339   0.0000       4.972043       135.2962 
 340   0.0000       5.010233       136.3354 
 341   0.0000       5.034989       137.0090 
 342   0.0000       5.079165       138.2111 
 343   0.0000       5.129308       139.5756 
 344   0.0000       5.147804       140.0789 
 345   0.0000       5.202707       141.5729 
 346   0.0000       5.220632       142.0606 
 347   0.0000       5.305501       144.3700 
 348   0.0000       5.306617       144.4004 
 349   0.0000       5.371742       146.1725 
 350   0.0000       5.416594       147.3930 
 351   0.0000       5.446910       148.2180 
 352   0.0000       5.628193       153.1509 
 353   0.0000       5.666604       154.1961 
 354   0.0000       5.723776       155.7519 
 355   0.0000       5.752506       156.5337 
 356   0.0000       5.853561       159.2835 
 357   0.0000       5.960730       162.1997 
 358   0.0000       6.079631       165.4352 
 359   0.0000       6.381526       173.6501 
 360   0.0000       6.454105       175.6251 
 361   0.0000       6.620772       180.1604 
 362   0.0000       6.679660       181.7628 
 363   0.0000       6.867552       186.8756 
 364   0.0000       7.105432       193.3486 
 365   0.0000       7.126008       193.9085 
 366   0.0000      22.439097       610.5989 
 367   0.0000      22.497681       612.1930 
 368   0.0000      22.571879       614.2121 
 369   0.0000      22.605175       615.1181 
 370   0.0000      22.850908       621.8048 
 371   0.0000      22.944944       624.3637 
 372   0.0000      23.182342       630.8236 
 373   0.0000      23.516545       639.9177 
 374   0.0000      32.907957       895.4710 
 375   0.0000      44.162876      1201.7330 

                    ********************************
                    * MULLIKEN POPULATION ANALYSIS *
                    ********************************

-----------------------
MULLIKEN ATOMIC CHARGES
-----------------------
   0 N :    0.004193
   1 C :   -0.333026
   2 C :   -0.113840
   3 C :    0.163079
   4 O :   -0.484999
   5 C :    0.014559
   6 C :   -0.502644
   7 C :    0.052217
   8 C :   -0.482838
   9 C :   -0.107554
  10 H :    0.177484
  11 H :    0.175898
  12 H :    0.160215
  13 H :    0.167866
  14 H :    0.147623
  15 H :    0.150553
  16 H :    0.186639
  17 H :    0.165551
  18 H :    0.133664
  19 H :    0.164701
  20 H :    0.160659
Sum of atomic charges:   -0.0000000

--------------------------------
MULLIKEN REDUCED ORBITAL CHARGES
--------------------------------
  0 N s       :     3.438703  s :     3.438703
      pz      :     1.332255  p :     3.471374
      px      :     1.050007
      py      :     1.089113
      dz2     :     0.004105  d :     0.080712
      dxz     :     0.011661
      dyz     :     0.027193
      dx2y2   :     0.021708
      dxy     :     0.016044
      f0      :     0.000973  f :     0.005017
      f+1     :     0.000661
      f-1     :     0.000589
      f+2     :     0.000336
      f-2     :     0.000639
      f+3     :     0.000560
      f-3     :     0.001260
  1 C s       :     3.319113  s :     3.319113
      pz      :     1.096250  p :     2.942714
      px      :     0.735957
      py      :     1.110507
      dz2     :     0.007310  d :     0.066692
      dxz     :     0.023966
      dyz     :     0.008581
      dx2y2   :     0.013424
      dxy     :     0.013412
      f0      :     0.000581  f :     0.004506
      f+1     :     0.000501
      f-1     :     0.000721
      f+2     :     0.000878
      f-2     :     0.000106
      f+3     :     0.000870
      f-3     :     0.000849
  2 C s       :     3.146718  s :     3.146718
      pz      :     1.018828  p :     2.876470
      px      :     1.008828
      py      :     0.848814
      dz2     :     0.005518  d :     0.081276
      dxz     :     0.016892
      dyz     :     0.017214
      dx2y2   :     0.017433
      dxy     :     0.024218
      f0      :     0.001707  f :     0.009375
      f+1     :     0.000992
      f-1     :     0.001133
      f+2     :     0.000758
      f-2     :     0.000953
      f+3     :     0.001333
      f-3     :     0.002499
  3 C s       :     3.055734  s :     3.055734
      pz      :     0.829126  p :     2.547147
      px      :     0.883574
      py      :     0.834447
      dz2     :     0.006500  d :     0.218538
      dxz     :     0.023373
      dyz     :     0.059861
      dx2y2   :     0.073268
      dxy     :     0.055536
      f0      :     0.002032  f :     0.015502
      f+1     :     0.001041
      f-1     :     0.001380
      f+2     :     0.001394
      f-2     :     0.001748
      f+3     :     0.002033
      f-3     :     0.005875
  4 O s       :     3.831800  s :     3.831800
      pz      :     1.504254  p :     4.622193
      px      :     1.710737
      py      :     1.407202
      dz2     :     0.002901  d :     0.029182
      dxz     :     0.001889
      dyz     :     0.007860
      dx2y2   :     0.007992
      dxy     :     0.008540
      f0      :     0.000166  f :     0.001824
      f+1     :     0.000061
      f-1     :     0.000198
      f+2     :     0.000148
      f-2     :     0.000248
      f+3     :     0.000551
      f-3     :     0.000451
  5 C s       :     3.193269  s :     3.193269
      pz      :     0.969002  p :     2.689351
      px      :     0.854982
      py      :     0.865366
      dz2     :     0.004450  d :     0.094842
      dxz     :     0.025222
      dyz     :     0.014670
      dx2y2   :     0.013069
      dxy     :     0.037432
      f0      :     0.001300  f :     0.007979
      f+1     :     0.000887
      f-1     :     0.000782
      f+2     :     0.000710
      f-2     :     0.000580
      f+3     :     0.001114
      f-3     :     0.002606
  6 C s       :     3.391787  s :     3.391787
      pz      :     1.034369  p :     3.057948
      px      :     0.896537
      py      :     1.127042
      dz2     :     0.004312  d :     0.049709
      dxz     :     0.017075
      dyz     :     0.006554
      dx2y2   :     0.008211
      dxy     :     0.013557
      f0      :     0.000255  f :     0.003199
      f+1     :     0.000416
      f-1     :     0.000575
      f+2     :     0.000419
      f-2     :     0.000216
      f+3     :     0.000651
      f-3     :     0.000667
  7 C s       :     3.153204  s :     3.153204
      pz      :     0.928142  p :     2.682480
      px      :     0.903021
      py      :     0.851318
      dz2     :     0.004812  d :     0.103566
      dxz     :     0.029995
      dyz     :     0.022001
      dx2y2   :     0.019315
      dxy     :     0.027443
      f0      :     0.001464  f :     0.008533
      f+1     :     0.000793
      f-1     :     0.000879
      f+2     :     0.001037
      f-2     :     0.000819
      f+3     :     0.000985
      f-3     :     0.002555
  8 C s       :     3.388364  s :     3.388364
      pz      :     1.079038  p :     3.042582
      px      :     1.046634
      py      :     0.916910
      dz2     :     0.005712  d :     0.048837
      dxz     :     0.012680
      dyz     :     0.010451
      dx2y2   :     0.009063
      dxy     :     0.010930
      f0      :     0.000247  f :     0.003056
      f+1     :     0.000769
      f-1     :     0.000227
      f+2     :     0.000310
      f-2     :     0.000234
      f+3     :     0.000652
      f-3     :     0.000617
  9 C s       :     3.120745  s :     3.120745
      pz      :     1.110227  p :     2.899595
      px      :     0.938692
      py      :     0.850676
      dz2     :     0.003851  d :     0.077789
      dxz     :     0.022975
      dyz     :     0.014854
      dx2y2   :     0.011692
      dxy     :     0.024418
      f0      :     0.001847  f :     0.009425
      f+1     :     0.001015
      f-1     :     0.001151
      f+2     :     0.000853
      f-2     :     0.000966
      f+3     :     0.001158
      f-3     :     0.002436
 10 H s       :     0.803363  s :     0.803363
      pz      :     0.009988  p :     0.019153
      px      :     0.003696
      py      :     0.005468
 11 H s       :     0.804945  s :     0.804945
      pz      :     0.009375  p :     0.019157
      px      :     0.003859
      py      :     0.005922
 12 H s       :     0.819889  s :     0.819889
      pz      :     0.003747  p :     0.019896
      px      :     0.004510
      py      :     0.011639
 13 H s       :     0.810929  s :     0.810929
      pz      :     0.004443  p :     0.021205
      px      :     0.005186
      py      :     0.011576
 14 H s       :     0.833607  s :     0.833607
      pz      :     0.008435  p :     0.018770
      px      :     0.004857
      py      :     0.005478
 15 H s       :     0.830687  s :     0.830687
      pz      :     0.008697  p :     0.018760
      px      :     0.004920
      py      :     0.005144
 16 H s       :     0.792722  s :     0.792722
      pz      :     0.003625  p :     0.020638
      px      :     0.004434
      py      :     0.012580
 17 H s       :     0.815355  s :     0.815355
      pz      :     0.008963  p :     0.019094
      px      :     0.006488
      py      :     0.003642
 18 H s       :     0.846746  s :     0.846746
      pz      :     0.003801  p :     0.019590
      px      :     0.006763
      py      :     0.009026
 19 H s       :     0.816207  s :     0.816207
      pz      :     0.008758  p :     0.019092
      px      :     0.006708
      py      :     0.003626
 20 H s       :     0.818424  s :     0.818424
      pz      :     0.005033  p :     0.020916
      px      :     0.005623
      py      :     0.010261


                     *******************************
                     * LOEWDIN POPULATION ANALYSIS *
                     *******************************

----------------------
LOEWDIN ATOMIC CHARGES
----------------------
   0 N :    0.251999
   1 C :   -0.227404
   2 C :   -0.134160
   3 C :   -0.366329
   4 O :   -0.039602
   5 C :   -0.107482
   6 C :   -0.258457
   7 C :   -0.163825
   8 C :   -0.250855
   9 C :   -0.187268
  10 H :    0.129161
  11 H :    0.129007
  12 H :    0.129351
  13 H :    0.148529
  14 H :    0.131976
  15 H :    0.132974
  16 H :    0.142286
  17 H :    0.134568
  18 H :    0.126977
  19 H :    0.134644
  20 H :    0.143912

-------------------------------
LOEWDIN REDUCED ORBITAL CHARGES
-------------------------------
  0 N s       :     2.872737  s :     2.872737
      pz      :     1.162412  p :     3.507408
      px      :     1.135795
      py      :     1.209201
      dz2     :     0.017030  d :     0.345994
      dxz     :     0.034541
      dyz     :     0.085657
      dx2y2   :     0.114476
      dxy     :     0.094290
      f0      :     0.001246  f :     0.021862
      f+1     :     0.001539
      f-1     :     0.001892
      f+2     :     0.001830
      f-2     :     0.004386
      f+3     :     0.002336
      f-3     :     0.008634
  1 C s       :     2.845425  s :     2.845425
      pz      :     1.107138  p :     3.065422
      px      :     0.851368
      py      :     1.106916
      dz2     :     0.041394  d :     0.281828
      dxz     :     0.076401
      dyz     :     0.032940
      dx2y2   :     0.067796
      dxy     :     0.063297
      f0      :     0.003446  f :     0.034729
      f+1     :     0.005073
      f-1     :     0.003252
      f+2     :     0.005809
      f-2     :     0.002275
      f+3     :     0.007670
      f-3     :     0.007202
  2 C s       :     2.785547  s :     2.785547
      pz      :     0.930976  p :     2.876796
      px      :     1.020071
      py      :     0.925749
      dz2     :     0.034298  d :     0.414795
      dxz     :     0.054926
      dyz     :     0.049211
      dx2y2   :     0.121183
      dxy     :     0.155178
      f0      :     0.005132  f :     0.057021
      f+1     :     0.004577
      f-1     :     0.005613
      f+2     :     0.006524
      f-2     :     0.006146
      f+3     :     0.010518
      f-3     :     0.018511
  3 C s       :     2.733903  s :     2.733903
      pz      :     0.790538  p :     2.743181
      px      :     0.985038
      py      :     0.967605
      dz2     :     0.048254  d :     0.784935
      dxz     :     0.071843
      dyz     :     0.157085
      dx2y2   :     0.278952
      dxy     :     0.228801
      f0      :     0.006071  f :     0.104309
      f+1     :     0.005429
      f-1     :     0.008313
      f+2     :     0.010526
      f-2     :     0.014068
      f+3     :     0.017148
      f-3     :     0.042755
  4 O s       :     3.421338  s :     3.421338
      pz      :     1.425742  p :     4.549043
      px      :     1.626950
      py      :     1.496351
      dz2     :     0.007332  d :     0.063930
      dxz     :     0.002996
      dyz     :     0.011808
      dx2y2   :     0.020699
      dxy     :     0.021095
      f0      :     0.000427  f :     0.005290
      f+1     :     0.000245
      f-1     :     0.000704
      f+2     :     0.000283
      f-2     :     0.000475
      f+3     :     0.001572
      f-3     :     0.001585
  5 C s       :     2.730405  s :     2.730405
      pz      :     0.843997  p :     2.850421
      px      :     0.998752
      py      :     1.007672
      dz2     :     0.033096  d :     0.476655
      dxz     :     0.076798
      dyz     :     0.052059
      dx2y2   :     0.152178
      dxy     :     0.162525
      f0      :     0.003934  f :     0.050001
      f+1     :     0.003865
      f-1     :     0.004114
      f+2     :     0.005706
      f-2     :     0.005027
      f+3     :     0.008027
      f-3     :     0.019329
  6 C s       :     2.815648  s :     2.815648
      pz      :     1.060480  p :     3.168738
      px      :     1.026703
      py      :     1.081556
      dz2     :     0.031187  d :     0.248572
      dxz     :     0.069047
      dyz     :     0.028551
      dx2y2   :     0.054529
      dxy     :     0.065258
      f0      :     0.001902  f :     0.025499
      f+1     :     0.003581
      f-1     :     0.003170
      f+2     :     0.003507
      f-2     :     0.003009
      f+3     :     0.004404
      f-3     :     0.005927
  7 C s       :     2.719723  s :     2.719723
      pz      :     0.840521  p :     2.868435
      px      :     1.024690
      py      :     1.003224
      dz2     :     0.031480  d :     0.520722
      dxz     :     0.092460
      dyz     :     0.075382
      dx2y2   :     0.169563
      dxy     :     0.151837
      f0      :     0.003796  f :     0.054946
      f+1     :     0.004371
      f-1     :     0.003972
      f+2     :     0.008033
      f-2     :     0.006250
      f+3     :     0.008624
      f-3     :     0.019899
  8 C s       :     2.818761  s :     2.818761
      pz      :     1.077294  p :     3.162958
      px      :     1.060136
      py      :     1.025528
      dz2     :     0.033584  d :     0.244779
      dxz     :     0.060414
      dyz     :     0.033387
      dx2y2   :     0.047745
      dxy     :     0.069649
      f0      :     0.001861  f :     0.024358
      f+1     :     0.003583
      f-1     :     0.003147
      f+2     :     0.004259
      f-2     :     0.001703
      f+3     :     0.004052
      f-3     :     0.005752
  9 C s       :     2.760757  s :     2.760757
      pz      :     1.019127  p :     2.935809
      px      :     1.014803
      py      :     0.901879
      dz2     :     0.031610  d :     0.435046
      dxz     :     0.071326
      dyz     :     0.044955
      dx2y2   :     0.111372
      dxy     :     0.175782
      f0      :     0.004516  f :     0.055656
      f+1     :     0.004901
      f-1     :     0.005319
      f+2     :     0.006874
      f-2     :     0.005651
      f+3     :     0.010270
      f-3     :     0.018125
 10 H s       :     0.809290  s :     0.809290
      pz      :     0.031406  p :     0.061549
      px      :     0.011587
      py      :     0.018556
 11 H s       :     0.809467  s :     0.809467
      pz      :     0.029718  p :     0.061527
      px      :     0.011932
      py      :     0.019876
 12 H s       :     0.809089  s :     0.809089
      pz      :     0.013336  p :     0.061560
      px      :     0.012510
      py      :     0.035714
 13 H s       :     0.789703  s :     0.789703
      pz      :     0.014690  p :     0.061768
      px      :     0.016344
      py      :     0.030734
 14 H s       :     0.808449  s :     0.808449
      pz      :     0.026447  p :     0.059575
      px      :     0.014396
      py      :     0.018733
 15 H s       :     0.807499  s :     0.807499
      pz      :     0.027220  p :     0.059528
      px      :     0.014588
      py      :     0.017720
 16 H s       :     0.794032  s :     0.794032
      pz      :     0.012581  p :     0.063683
      px      :     0.013348
      py      :     0.037754
 17 H s       :     0.805280  s :     0.805280
      pz      :     0.028066  p :     0.060153
      px      :     0.020017
      py      :     0.012070
 18 H s       :     0.813243  s :     0.813243
      pz      :     0.013182  p :     0.059780
      px      :     0.022501
      py      :     0.024097
 19 H s       :     0.805200  s :     0.805200
      pz      :     0.027495  p :     0.060155
      px      :     0.020624
      py      :     0.012037
 20 H s       :     0.794411  s :     0.794411
      pz      :     0.017517  p :     0.061678
      px      :     0.016654
      py      :     0.027506


                      *****************************
                      * MAYER POPULATION ANALYSIS *
                      *****************************

  NA   - Mulliken gross atomic population
  ZA   - Total nuclear charge
  QA   - Mulliken gross atomic charge
  VA   - Mayer's total valence
  BVA  - Mayer's bonded valence
  FA   - Mayer's free valence

  ATOM       NA         ZA         QA         VA         BVA        FA
  0 N      6.9958     7.0000     0.0042     3.4858     3.4858    -0.0000
  1 C      6.3330     6.0000    -0.3330     3.7988     3.7988     0.0000
  2 C      6.1138     6.0000    -0.1138     3.7985     3.7985    -0.0000
  3 C      5.8369     6.0000     0.1631     4.4220     4.4220    -0.0000
  4 O      8.4850     8.0000    -0.4850     1.9942     1.9942    -0.0000
  5 C      5.9854     6.0000     0.0146     3.4428     3.4428    -0.0000
  6 C      6.5026     6.0000    -0.5026     3.8066     3.8066     0.0000
  7 C      5.9478     6.0000     0.0522     3.7332     3.7332     0.0000
  8 C      6.4828     6.0000    -0.4828     3.8484     3.8484    -0.0000
  9 C      6.1076     6.0000    -0.1076     3.8049     3.8049    -0.0000
 10 H      0.8225     1.0000     0.1775     0.9426     0.9426     0.0000
 11 H      0.8241     1.0000     0.1759     0.9436     0.9436     0.0000
[...]
     11      -0.000020   0.000495  -0.000056   0.000002  -0.000018  -0.000021
     12      -0.000089  -0.000001   0.000001  -0.000052  -0.000486   0.000003
     13      -0.000052   0.000008  -0.000001   0.000047   0.000042   0.000001
     14       0.000001  -0.000053   0.000035  -0.000001  -0.000010   0.000008
     15       0.000162  -0.000066  -0.000018   0.000290   0.000169   0.000005
     16       0.000168  -0.000030   0.000005  -0.000067   0.000560   0.000006
     17       0.000002   0.000480   0.000278   0.000010   0.000011   0.000016
     18      -0.000076   0.000692   0.000041  -0.000332   0.010666   0.000001
     19      -0.000030  -0.002325  -0.000118  -0.000589   0.090537   0.000030
     20      -0.000045   0.090762   0.009236   0.000204   0.001660  -0.000028
     21      -0.000472   0.000012  -0.000022   0.001389  -0.000330  -0.000000
     22      -0.000003  -0.000029   0.000023  -0.000398   0.000160  -0.000023
     23      -0.000020  -0.000202  -0.000629   0.000014   0.000018   0.000059
     24       0.000267  -0.000275   0.000924   0.078432   0.000876   0.000004
     25      -0.000140  -0.000145  -0.000461   0.049773   0.000134  -0.000003
     26       0.000004   0.009270  -0.091357   0.000548   0.000123  -0.000035
     27       0.001275  -0.000002   0.000020  -0.000873  -0.000256  -0.000183
     28       0.000128   0.000012   0.000013  -0.001008  -0.000161  -0.000243
     29       0.000019   0.000159  -0.000207  -0.000018  -0.000002   0.000243
     30       0.192869   0.000189   0.000003  -0.000179   0.000006   0.211034
     31       0.279620   0.000278  -0.000030  -0.000195   0.000003   0.310767
     32       0.554577   0.000538  -0.000093  -0.000445  -0.000079   0.585307
     33       0.193833   0.000048   0.000009  -0.000139   0.000140  -0.228857
     34       0.317390   0.000060   0.000028  -0.000162   0.000193  -0.380049
     35      -0.488887  -0.000096  -0.000093   0.000311  -0.000205   0.555557
     36       0.147908   0.000080   0.000013  -0.000662   0.000492  -0.013250
     37      -0.418070  -0.000216  -0.000041   0.001692  -0.001384   0.038686
     38      -0.021146  -0.000063   0.000044   0.000087  -0.000057  -0.015422
     39      -0.007657   0.000014   0.000024   0.000210  -0.002026   0.001069
     40       0.011359   0.000011  -0.000032  -0.000660   0.002813  -0.001782
     41      -0.000024  -0.000281   0.000107   0.000004   0.000004  -0.000269
     42       0.000116  -0.258941  -0.024774  -0.001710   0.091005   0.000037
     43      -0.000306   0.363966   0.036582   0.000497  -0.116756  -0.000206
     44       0.000385  -0.561277  -0.056544  -0.003427   0.209354   0.000329
     45      -0.000177   0.260304   0.025638  -0.000427   0.088489   0.000037
     46       0.000064  -0.310887  -0.031949  -0.001213  -0.092599   0.000104
     47       0.000205  -0.549146  -0.056850   0.000630  -0.197700   0.000176
     48       0.000278  -0.008331  -0.001153   0.002159  -0.301333  -0.000111
     49       0.000919  -0.024698  -0.003379   0.007793  -0.882357  -0.000267
     50       0.000020   0.019963   0.002913   0.000254  -0.031412  -0.000007
     51      -0.001956  -0.041826   0.410172  -0.177651  -0.003891   0.000016
     52       0.000391   0.007210  -0.058723   0.037319   0.000089   0.000039
     53      -0.002873  -0.057099   0.566092  -0.280856  -0.004909   0.000079
     54       0.000764   0.000622   0.010274  -0.565372  -0.003226   0.000027
     55       0.000918   0.000891   0.011743  -0.658758  -0.004207   0.000033
     56       0.000018   0.000674  -0.017097  -0.015160  -0.000073  -0.000039
     57      -0.002103   0.043988  -0.431482  -0.201000  -0.003091  -0.000044
     58       0.000374  -0.006660   0.052420   0.035771  -0.000109  -0.000042
     59       0.002836  -0.055001   0.547610   0.289440   0.003392   0.000118
     60      -0.006922  -0.000032  -0.000076   0.005418   0.001206   0.001834
     61      -0.007684  -0.000067  -0.000163   0.011156   0.002068   0.002684
     62      -0.000111   0.000042  -0.000256   0.000102  -0.000015  -0.001770
                 60         61         62    
      0      -0.000550  -0.000834   0.002092
      1      -0.001063   0.000946   0.000668
      2      -0.000013  -0.000001   0.000017
      3       0.010440   0.000404   0.001820
      4      -0.092982  -0.005598  -0.005683
      5      -0.001922   0.000066  -0.000370
      6      -0.004470   0.022247   0.043898
      7       0.006368  -0.028993  -0.065297
      8       0.000008   0.000112   0.000186
      9       0.000383  -0.002214  -0.002940
     10       0.000179  -0.000280  -0.000307
     11       0.000010  -0.000019  -0.000020
     12      -0.000039   0.000337   0.000258
     13      -0.000008   0.000178  -0.000008
     14      -0.000004   0.000003   0.000002
     15       0.000024   0.000396  -0.000161
     16       0.000098   0.000558  -0.000772
     17       0.000001   0.000005  -0.000003
     18      -0.000003  -0.000108  -0.000046
     19       0.000183  -0.000421  -0.000207
     20      -0.000007   0.000002  -0.000007
     21      -0.000352   0.003635  -0.000579
     22       0.000004  -0.000735   0.000888
     23      -0.000001   0.000030   0.000001
     24      -0.000069  -0.000772   0.000399
     25      -0.000050  -0.000769   0.000399
     26      -0.000000  -0.000019   0.000004
     27       0.001115  -0.045355   0.020053
     28       0.001989  -0.063698   0.032582
     29      -0.000003  -0.000625   0.000285
     30       0.086054   0.006067   0.000674
     31       0.110916   0.006465   0.004485
     32       0.246846   0.015364   0.008690
     33       0.105448   0.008076   0.000444
     34       0.160029   0.011084   0.004939
     35      -0.265826  -0.018491  -0.007295
     36      -0.300735  -0.015957  -0.024564
     37       0.838518   0.048642   0.061737
     38       0.042014   0.002360   0.003002
     39       0.047940  -0.243491  -0.512231
     40      -0.069754   0.349306   0.736255
     41       0.000198  -0.001106  -0.002274
     42       0.000167  -0.000299   0.000284
     43      -0.000245   0.000072   0.000083
     44       0.000445  -0.000586  -0.000122
     45       0.000179  -0.000280   0.000313
     46      -0.000194  -0.000037   0.000044
     47      -0.000426   0.000450   0.000108
     48      -0.000400   0.000367   0.001085
     49      -0.001351   0.003422   0.001897
     50      -0.000052   0.000095   0.000074
     51       0.000243   0.000047   0.000281
     52      -0.000049   0.000820  -0.000432
     53       0.000297   0.000536   0.000053
     54       0.000567   0.006756  -0.003747
     55       0.000745   0.010406  -0.005809
     56       0.000018   0.000197  -0.000111
     57       0.000244   0.000083   0.000227
     58      -0.000049   0.000853  -0.000438
     59      -0.000283  -0.000528   0.000022
     60      -0.015668   0.504235  -0.239988
     61      -0.020226   0.743808  -0.354374
     62      -0.000196   0.007010  -0.003322


-----------
IR SPECTRUM
-----------

 Mode   freq       eps      Int      T**2         TX        TY        TZ
       cm**-1   L/(mol*cm) km/mol    a.u.
----------------------------------------------------------------------------
  8:    105.67   0.001052    5.31  0.003105  (-0.000713 -0.000238  0.055721)
  9:    142.05   0.000026    0.13  0.000057  (-0.000163 -0.000672  0.007538)
 10:    184.67   0.000074    0.38  0.000126  ( 0.000568 -0.000329 -0.011187)
 11:    220.70   0.000194    0.98  0.000274  ( 0.000420 -0.000692 -0.016531)
 12:    297.31   0.000097    0.49  0.000102  (-0.002357 -0.009815  0.000125)
 13:    313.97   0.000711    3.59  0.000707  ( 0.005637 -0.025982  0.000176)
 14:    325.08   0.000048    0.24  0.000046  (-0.000610 -0.000521 -0.006706)
 15:    352.68   0.000833    4.21  0.000737  ( 0.026618 -0.005358  0.000140)
 16:    453.95   0.000992    5.01  0.000682  ( 0.005348 -0.025560 -0.000065)
 17:    537.97   0.000682    3.45  0.000396  (-0.013739 -0.014388 -0.000341)
 18:    544.73   0.000005    0.03  0.000003  (-0.000678 -0.000428 -0.001573)
 19:    591.35   0.000287    1.45  0.000151  (-0.006340 -0.010543  0.000153)
 20:    620.61   0.001093    5.52  0.000550  ( 0.012324  0.017798 -0.009000)
 21:    621.55   0.001148    5.80  0.000576  (-0.004294 -0.007271 -0.022476)
 22:    733.25   0.000174    0.88  0.000074  ( 0.000311 -0.000285  0.008600)
 23:    777.05   0.002412   12.19  0.000969  ( 0.000006  0.000162 -0.031122)
 24:    778.67   0.001983   10.02  0.000795  (-0.016366 -0.022934 -0.000861)
 25:    860.77   0.006914   34.94  0.002507  (-0.000456 -0.000121  0.050065)
 26:    949.91   0.000358    1.81  0.000118  ( 0.007367 -0.007960  0.000309)
 27:   1016.18   0.002469   12.48  0.000758  (-0.004719  0.027129 -0.000121)
 28:   1032.77   0.000179    0.90  0.000054  ( 0.001655 -0.000662 -0.007131)
 29:   1057.46   0.000266    1.35  0.000079  ( 0.008711 -0.001641  0.000208)
 30:   1064.23   0.000030    0.15  0.000009  ( 0.000558 -0.000335  0.002909)
 31:   1125.90   0.004154   20.99  0.001151  (-0.026623  0.021041  0.000093)
 32:   1151.32   0.000062    0.31  0.000017  ( 0.003721 -0.001492  0.000875)
 33:   1161.99   0.000690    3.48  0.000185  ( 0.013601  0.000191  0.000391)
 34:   1183.99   0.010281   51.96  0.002710  ( 0.038400  0.035144  0.000324)
 35:   1245.72   0.001789    9.04  0.000448  (-0.013588  0.016235 -0.000135)
 36:   1294.52   0.003057   15.45  0.000737  ( 0.022528 -0.015144  0.000158)
 37:   1337.85   0.005989   30.27  0.001397  (-0.019053  0.032156  0.000023)
 38:   1397.37   0.005765   29.13  0.001287  (-0.035291 -0.006461 -0.000481)
 39:   1415.86   0.000067    0.34  0.000015  ( 0.002476  0.002930 -0.000151)
 40:   1438.29   0.004713   23.82  0.001023  (-0.031042  0.007661 -0.000496)
 41:   1456.95   0.001398    7.07  0.000299  ( 0.012297  0.012160 -0.000616)
 42:   1476.44   0.001457    7.36  0.000308  ( 0.016693  0.004161  0.003453)
 43:   1478.71   0.000567    2.87  0.000120  (-0.000576  0.000093  0.010925)
 44:   1487.66   0.001723    8.71  0.000361  ( 0.015242 -0.009238  0.006609)
 45:   1492.75   0.001934    9.77  0.000404  ( 0.004635  0.000852 -0.019545)
 46:   1502.45   0.003640   18.39  0.000756  (-0.002721  0.002933  0.027203)
 47:   1507.09   0.004961   25.07  0.001027  ( 0.015767 -0.027902  0.000443)
 48:   1540.00   0.002028   10.25  0.000411  (-0.020158  0.002145  0.000288)
 49:   1615.44   0.004308   21.77  0.000832  ( 0.028824  0.001138  0.000387)
 50:   1634.14   0.003131   15.82  0.000598  (-0.011042 -0.021815 -0.000119)
 51:   1681.49   0.122350  618.31  0.022707  (-0.054469 -0.140497 -0.000681)
 52:   3058.04   0.003951   19.97  0.000403  ( 0.017299 -0.010184 -0.000430)
 53:   3070.66   0.002729   13.79  0.000277  ( 0.005885 -0.015579  0.000166)
 54:   3100.68   0.003133   15.83  0.000315  (-0.017652 -0.001817 -0.000668)
 55:   3114.78   0.002388   12.07  0.000239  ( 0.000460 -0.000742  0.015443)
 56:   3135.28   0.000858    4.33  0.000085  ( 0.000069 -0.000347 -0.009232)
 57:   3160.82   0.002238   11.31  0.000221  ( 0.010050  0.010951  0.000251)
 58:   3179.73   0.000314    1.59  0.000031  ( 0.005544 -0.000206  0.000016)
 59:   3182.15   0.000444    2.25  0.000044  ( 0.000459  0.000374 -0.006574)
 60:   3213.20   0.000210    1.06  0.000020  ( 0.002243 -0.003918 -0.000085)
 61:   3254.83   0.000390    1.97  0.000037  (-0.002371  0.005635 -0.000042)
 62:   3260.28   0.000080    0.41  0.000008  (-0.002380 -0.001419 -0.000050)

* The epsilon (eps) is given for a Dirac delta lineshape.
** The dipole moment derivative (T) already includes vibrational overlap.

The first frequency considered to be a vibration is 8
The total number of vibrations considered is 55


--------------------------
THERMOCHEMISTRY AT 298.15K
--------------------------

Temperature         ... 298.15 K
Pressure            ... 1.00 atm
Total Mass          ... 137.18 AMU

Throughout the following assumptions are being made:
  (1) The electronic state is orbitally nondegenerate
  (2) There are no thermally accessible electronically excited states
  (3) Hindered rotations indicated by low frequency modes are not
      treated as such but are treated as vibrations and this may
      cause some error
  (4) All equations used are the standard statistical mechanics
      equations for an ideal gas
  (5) All vibrations are strictly harmonic

freq.     105.67  E(vib)   ...       0.45 
freq.     142.05  E(vib)   ...       0.41 
freq.     184.67  E(vib)   ...       0.37 
freq.     220.70  E(vib)   ...       0.33 
freq.     297.31  E(vib)   ...       0.27 
freq.     313.97  E(vib)   ...       0.25 
freq.     325.08  E(vib)   ...       0.24 
freq.     352.68  E(vib)   ...       0.22 
freq.     453.95  E(vib)   ...       0.16 
freq.     537.97  E(vib)   ...       0.12 
freq.     544.73  E(vib)   ...       0.12 
freq.     591.35  E(vib)   ...       0.10 
freq.     620.61  E(vib)   ...       0.09 
freq.     621.55  E(vib)   ...       0.09 
freq.     733.25  E(vib)   ...       0.06 
freq.     777.05  E(vib)   ...       0.05 
freq.     778.67  E(vib)   ...       0.05 
freq.     860.77  E(vib)   ...       0.04 
freq.     949.91  E(vib)   ...       0.03 
freq.    1016.18  E(vib)   ...       0.02 
freq.    1032.77  E(vib)   ...       0.02 
freq.    1057.46  E(vib)   ...       0.02 
freq.    1064.23  E(vib)   ...       0.02 
freq.    1125.90  E(vib)   ...       0.01 
freq.    1151.32  E(vib)   ...       0.01 
freq.    1161.99  E(vib)   ...       0.01 
freq.    1183.99  E(vib)   ...       0.01 
freq.    1245.72  E(vib)   ...       0.01 
freq.    1294.52  E(vib)   ...       0.01 
freq.    1337.85  E(vib)   ...       0.01 
freq.    1397.37  E(vib)   ...       0.00 
freq.    1415.86  E(vib)   ...       0.00 
freq.    1438.29  E(vib)   ...       0.00 
freq.    1456.95  E(vib)   ...       0.00 
freq.    1476.44  E(vib)   ...       0.00 
freq.    1478.71  E(vib)   ...       0.00 
freq.    1487.66  E(vib)   ...       0.00 
freq.    1492.75  E(vib)   ...       0.00 
freq.    1502.45  E(vib)   ...       0.00 
freq.    1507.09  E(vib)   ...       0.00 
freq.    1540.00  E(vib)   ...       0.00 
freq.    1615.44  E(vib)   ...       0.00 
freq.    1634.14  E(vib)   ...       0.00 
freq.    1681.49  E(vib)   ...       0.00 
freq.    3058.04  E(vib)   ...       0.00 
freq.    3070.66  E(vib)   ...       0.00 
freq.    3100.68  E(vib)   ...       0.00 
freq.    3114.78  E(vib)   ...       0.00 
freq.    3135.28  E(vib)   ...       0.00 
freq.    3160.82  E(vib)   ...       0.00 
freq.    3179.73  E(vib)   ...       0.00 
freq.    3182.15  E(vib)   ...       0.00 
freq.    3213.20  E(vib)   ...       0.00 
freq.    3254.83  E(vib)   ...       0.00 
freq.    3260.28  E(vib)   ...       0.00 

------------
INNER ENERGY
------------

The inner energy is: U= E(el) + E(ZPE) + E(vib) + E(rot) + E(trans)
    E(el)   - is the total energy from the electronic structure calculation
              = E(kin-el) + E(nuc-el) + E(el-el) + E(nuc-nuc)
    E(ZPE)  - the the zero temperature vibrational energy from the frequency calculation
    E(vib)  - the the finite temperature correction to E(ZPE) due to population
              of excited vibrational states
    E(rot)  - is the rotational thermal energy
    E(trans)- is the translational thermal energy

Summary of contributions to the inner energy U:
Electronic energy                ...   -441.40133671 Eh
Zero point energy                ...      0.17755802 Eh     111.42 kcal/mol
Thermal vibrational correction   ...      0.00587080 Eh       3.68 kcal/mol
Thermal rotational correction    ...      0.00141627 Eh       0.89 kcal/mol
Thermal translational correction ...      0.00141627 Eh       0.89 kcal/mol
-----------------------------------------------------------------------
Total thermal energy                   -441.21507535 Eh


Summary of corrections to the electronic energy:
(perhaps to be used in another calculation)
Total thermal correction                  0.00870334 Eh       5.46 kcal/mol
Non-thermal (ZPE) correction              0.17755802 Eh     111.42 kcal/mol
-----------------------------------------------------------------------
Total correction                          0.18626136 Eh     116.88 kcal/mol


--------
ENTHALPY
--------

The enthalpy is H = U + kB*T
                kB is Boltzmann's constant
Total free energy                 ...   -441.21507535 Eh 
Thermal Enthalpy correction       ...      0.00094421 Eh       0.59 kcal/mol
-----------------------------------------------------------------------
Total Enthalpy                    ...   -441.21413114 Eh


Note: Only C1 symmetry has been detected, increase convergence thresholds 
      if your molecule has a higher symmetry. Symmetry factor of 1.0 is   
      used for the rotational entropy correction. 
 

Note: Rotational entropy computed according to Herzberg 
Infrared and Raman Spectra, Chapter V,1, Van Nostrand Reinhold, 1945 
Point Group:  C1, Symmetry Number:   1  
Rotational constants in cm-1:     0.060793     0.043362     0.025673 

Vibrational entropy computed according to the QRRHO of S. Grimme
Chem.Eur.J. 2012 18 9955


-------
ENTROPY
-------

The entropy contributions are T*S = T*(S(el)+S(vib)+S(rot)+S(trans))
     S(el)   - electronic entropy
     S(vib)  - vibrational entropy
     S(rot)  - rotational entropy
     S(trans)- translational entropy
The entropies will be listed as multiplied by the temperature to get
units of energy

Electronic entropy                ...      0.00000000 Eh      0.00 kcal/mol
Vibrational entropy               ...      0.00962821 Eh      6.04 kcal/mol
Rotational entropy                ...      0.01404324 Eh      8.81 kcal/mol
Translational entropy             ...      0.01931898 Eh     12.12 kcal/mol
-----------------------------------------------------------------------
Final entropy term                ...      0.04299044 Eh     26.98 kcal/mol

In case the symmetry of your molecule has not been determined correctly
or in case you have a reason to use a different symmetry number we print 
out the resulting rotational entropy values for sn=1,12 :
 --------------------------------------------------------
|  sn= 1 | S(rot)=       0.01404324 Eh      8.81 kcal/mol|
|  sn= 2 | S(rot)=       0.01338879 Eh      8.40 kcal/mol|
|  sn= 3 | S(rot)=       0.01300596 Eh      8.16 kcal/mol|
|  sn= 4 | S(rot)=       0.01273433 Eh      7.99 kcal/mol|
|  sn= 5 | S(rot)=       0.01252364 Eh      7.86 kcal/mol|
|  sn= 6 | S(rot)=       0.01235150 Eh      7.75 kcal/mol|
|  sn= 7 | S(rot)=       0.01220595 Eh      7.66 kcal/mol|
|  sn= 8 | S(rot)=       0.01207988 Eh      7.58 kcal/mol|
|  sn= 9 | S(rot)=       0.01196867 Eh      7.51 kcal/mol|
|  sn=10 | S(rot)=       0.01186919 Eh      7.45 kcal/mol|
|  sn=11 | S(rot)=       0.01177920 Eh      7.39 kcal/mol|
|  sn=12 | S(rot)=       0.01169704 Eh      7.34 kcal/mol|
 --------------------------------------------------------


-------------------
GIBBS FREE ENERGY
-------------------

The Gibbs free energy is G = H - T*S

Total enthalpy                    ...   -441.21413114 Eh 
Total entropy correction          ...     -0.04299044 Eh    -26.98 kcal/mol
-----------------------------------------------------------------------
Final Gibbs free energy         ...   -441.25712158 Eh

For completeness - the Gibbs free energy minus the electronic energy
G-E(el)                           ...      0.14421513 Eh     90.50 kcal/mol


Timings for individual modules:

Sum of individual times         ...      757.574 sec (=  12.626 min)
GTO integral calculation        ...       21.724 sec (=   0.362 min)   2.9 %
SCF iterations                  ...      262.287 sec (=   4.371 min)  34.6 %
SCF Gradient evaluation         ...       63.702 sec (=   1.062 min)   8.4 %
Geometry relaxation             ...        1.162 sec (=   0.019 min)   0.2 %
Analytical frequency calculation...      408.699 sec (=   6.812 min)  53.9 %
                             ****ORCA TERMINATED NORMALLY****
TOTAL RUN TIME: 0 days 0 hours 13 minutes 13 seconds 797 msec
