
                                 *****************
                                 * O   R   C   A *
                                 *****************

                                            #,                                       
                                            ###                                      
                                            ####                                     
                                            #####                                    
                                            ######                                   
                                           ########,                                 
                                     ,,################,,,,,                         
                               ,,#################################,,                 
                          ,,##########################################,,             
                       ,#########################################, ''#####,          
                    ,#############################################,,   '####,        
                  ,##################################################,,,,####,       
                ,###########''''           ''''###############################       
              ,#####''   ,,,,##########,,,,          '''####'''          '####       
            ,##' ,,,,###########################,,,                        '##       
           ' ,,###''''                  '''############,,,                           
         ,,##''                                '''############,,,,        ,,,,,,###''
      ,#''                                            '''#######################'''  
     '                                                          ''''####''''         
             ,#######,   #######,   ,#######,      ##                                
            ,#'     '#,  ##    ##  ,#'     '#,    #''#        ######   ,####,        
            ##       ##  ##   ,#'  ##            #'  '#       #        #'  '#        
            ##       ##  #######   ##           ,######,      #####,   #    #        
            '#,     ,#'  ##    ##  '#,     ,#' ,#      #,         ##   #,  ,#        
             '#######'   ##     ##  '#######'  #'      '#     #####' # '####'        



                  #######################################################
                  #                        -***-                        #
                  #          Department of theory and spectroscopy      #
                  #    Directorship and core code : Frank Neese         #
                  #        Max Planck Institute fuer Kohlenforschung    #
                  #                Kaiser Wilhelm Platz 1               #
                  #                 D-45470 Muelheim/Ruhr               #
                  #                      Germany                        #
                  #                                                     #
                  #                  All rights reserved                #
                  #                        -***-                        #
                  #######################################################


                         Program Version 5.0.4 -  RELEASE  -


 With contributions from (in alphabetic order):
   Daniel Aravena         : Magnetic Suceptibility
   Michael Atanasov       : Ab Initio Ligand Field Theory (pilot matlab implementation)
   Alexander A. Auer      : GIAO ZORA, VPT2 properties, NMR spectrum
   Ute Becker             : Parallelization
   Giovanni Bistoni       : ED, misc. LED, open-shell LED, HFLD
   Martin Brehm           : Molecular dynamics
   Dmytro Bykov           : SCF Hessian
   Vijay G. Chilkuri      : MRCI spin determinant printing, contributions to CSF-ICE
   Dipayan Datta          : RHF DLPNO-CCSD density
   Achintya Kumar Dutta   : EOM-CC, STEOM-CC
   Dmitry Ganyushin       : Spin-Orbit,Spin-Spin,Magnetic field MRCI
   Miquel Garcia          : C-PCM and meta-GGA Hessian, CC/C-PCM, Gaussian charge scheme
   Yang Guo               : DLPNO-NEVPT2, F12-NEVPT2, CIM, IAO-localization
   Andreas Hansen         : Spin unrestricted coupled pair/coupled cluster methods
   Benjamin Helmich-Paris : MC-RPA, TRAH-SCF, COSX integrals
   Lee Huntington         : MR-EOM, pCC
   Robert Izsak           : Overlap fitted RIJCOSX, COSX-SCS-MP3, EOM
   Marcus Kettner         : VPT2
   Christian Kollmar      : KDIIS, OOCD, Brueckner-CCSD(T), CCSD density, CASPT2, CASPT2-K
   Simone Kossmann        : Meta GGA functionals, TD-DFT gradient, OOMP2, MP2 Hessian
   Martin Krupicka        : Initial AUTO-CI
   Lucas Lang             : DCDCAS
   Marvin Lechner         : AUTO-CI (C++ implementation), FIC-MRCC
   Dagmar Lenk            : GEPOL surface, SMD
   Dimitrios Liakos       : Extrapolation schemes; Compound Job, initial MDCI parallelization
   Dimitrios Manganas     : Further ROCIS development; embedding schemes
   Dimitrios Pantazis     : SARC Basis sets
   Anastasios Papadopoulos: AUTO-CI, single reference methods and gradients
   Taras Petrenko         : DFT Hessian,TD-DFT gradient, ASA, ECA, R-Raman, ABS, FL, XAS/XES, NRVS
   Peter Pinski           : DLPNO-MP2, DLPNO-MP2 Gradient
   Christoph Reimann      : Effective Core Potentials
   Marius Retegan         : Local ZFS, SOC
   Christoph Riplinger    : Optimizer, TS searches, QM/MM, DLPNO-CCSD(T), (RO)-DLPNO pert. Triples
   Tobias Risthaus        : Range-separated hybrids, TD-DFT gradient, RPA, STAB
   Michael Roemelt        : Original ROCIS implementation
   Masaaki Saitow         : Open-shell DLPNO-CCSD energy and density
   Barbara Sandhoefer     : DKH picture change effects
   Avijit Sen             : IP-ROCIS
   Kantharuban Sivalingam : CASSCF convergence, NEVPT2, FIC-MRCI
   Bernardo de Souza      : ESD, SOC TD-DFT
   Georgi Stoychev        : AutoAux, RI-MP2 NMR, DLPNO-MP2 response
   Willem Van den Heuvel  : Paramagnetic NMR
   Boris Wezisla          : Elementary symmetry handling
   Frank Wennmohs         : Technical directorship


 We gratefully acknowledge several colleagues who have allowed us to
 interface, adapt or use parts of their codes:
   Stefan Grimme, W. Hujo, H. Kruse, P. Pracht,  : VdW corrections, initial TS optimization,
                  C. Bannwarth, S. Ehlert          DFT functionals, gCP, sTDA/sTD-DF
   Ed Valeev, F. Pavosevic, A. Kumar             : LibInt (2-el integral package), F12 methods
   Garnet Chan, S. Sharma, J. Yang, R. Olivares  : DMRG
   Ulf Ekstrom                                   : XCFun DFT Library
   Mihaly Kallay                                 : mrcc  (arbitrary order and MRCC methods)
   Jiri Pittner, Ondrej Demel                    : Mk-CCSD
   Frank Weinhold                                : gennbo (NPA and NBO analysis)
   Christopher J. Cramer and Donald G. Truhlar   : smd solvation model
   Lars Goerigk                                  : TD-DFT with DH, B97 family of functionals
   V. Asgeirsson, H. Jonsson                     : NEB implementation
   FAccTs GmbH                                   : IRC, NEB, NEB-TS, DLPNO-Multilevel, CI-OPT
                                                   MM, QMMM, 2- and 3-layer-ONIOM, Crystal-QMMM,
                                                   LR-CPCM, SF, NACMEs, symmetry and pop. for TD-DFT,
                                                   nearIR, NL-DFT gradient (VV10), updates on ESD,
                                                   ML-optimized integration grids
   S Lehtola, MJT Oliveira, MAL Marques          : LibXC Library
   Liviu Ungur et al                             : ANISO software


 Your calculation uses the libint2 library for the computation of 2-el integrals
 For citations please refer to: http://libint.valeyev.net

 Your ORCA version has been built with support for libXC version: 5.1.0
 For citations please refer to: https://tddft.org/programs/libxc/

 This ORCA versions uses:
   CBLAS   interface :  Fast vector & matrix operations
   LAPACKE interface :  Fast linear algebra routines
   SCALAPACK package :  Parallel linear algebra routines
   Shared memory     :  Shared parallel matrices
   BLAS/LAPACK       :  OpenBLAS 0.3.15  USE64BITINT DYNAMIC_ARCH NO_AFFINITY SkylakeX SINGLE_THREADED
        Core in use  :  SkylakeX
   Copyright (c) 2011-2014, The OpenBLAS Project




***************************************
The coordinates will be read from file: opt_EPRII.xyz
***************************************


XCFun DFT library Copyright 2009-2010 Ulf Ekstrom and contributors.
See http://admol.org/xcfun for more information.
This is free software; see the source code for copying conditions.
There is ABSOLUTELY NO WARRANTY; not even for MERCHANTABILITY or FITNESS FOR A PARTICULAR PURPOSE.
For details see the documentation.
Scientific users of this library should cite U. Ekstrom, L. Visscher, R. Bast, A. J. Thorvaldsen and K. Ruud;
J.Chem.Theor.Comp. 2010, DOI: 10.1021/ct100117s
XCFun Version 0.99 

================================================================================

----- Orbital basis set information -----
Your calculation utilizes the basis: def2-TZVP
   F. Weigend and R. Ahlrichs, Phys. Chem. Chem. Phys. 7, 3297 (2005).

----- AuxJ basis set information -----
Your calculation utilizes the auxiliary basis: def2/J
   F. Weigend, Phys. Chem. Chem. Phys. 8, 1057 (2006).

================================================================================
                                        WARNINGS
                       Please study these warnings very carefully!
================================================================================


WARNING: Geometry Optimization
  ===> : Switching off AutoStart
         For restart on a previous wavefunction, please use MOREAD

WARNING: Minnesota functionals are quite sensitive to the integration grid.
         see SE Wheeler, KN Houk, JCTC 2010, 6, 395,
             N Mardirossian, M Head-Gordon, JCTC 2016, 12, 4303.
         DEFGRID3 seems to be a minimum grid for reliable results with these functionals!
  ===> : Please increase the integration grid!


INFO   : the flag for use of the SHARK integral package has been found!

================================================================================
                                       INPUT FILE
================================================================================
NAME = freq.inp
|  1> ! M062X def2-TZVP OPT FREQ
|  2> %pal nprocs 16 end
|  3> *XYZFile 1 1 opt_EPRII.xyz
|  4> 
|  5>                          ****END OF INPUT****
================================================================================

                       *****************************
                       * Geometry Optimization Run *
                       *****************************

Geometry optimization settings:
Update method            Update   .... BFGS
Choice of coordinates    CoordSys .... Z-matrix Internals
Initial Hessian          InHess   .... Almoef's Model

Convergence Tolerances:
Energy Change            TolE     ....  5.0000e-06 Eh
Max. Gradient            TolMAXG  ....  3.0000e-04 Eh/bohr
RMS Gradient             TolRMSG  ....  1.0000e-04 Eh/bohr
Max. Displacement        TolMAXD  ....  4.0000e-03 bohr
RMS Displacement         TolRMSD  ....  2.0000e-03 bohr
Strict Convergence                ....  False
------------------------------------------------------------------------------
                        ORCA OPTIMIZATION COORDINATE SETUP
------------------------------------------------------------------------------

The optimization will be done in new redundant internal coordinates
Making redundant internal coordinates   ...  (new redundants) done
Evaluating the initial hessian          ...  (Almloef) done
Evaluating the coordinates              ...  done
Calculating the B-matrix                .... done
Calculating the G-matrix                .... done
Diagonalizing the G-matrix              .... done
The first mode is                       ....   43
The number of degrees of freedom        ....   60

    -----------------------------------------------------------------
                    Redundant Internal Coordinates


    -----------------------------------------------------------------
         Definition                    Initial Value    Approx d2E/dq
    -----------------------------------------------------------------
      1. B(C   1,N   0)                  1.4848         0.395019   
      2. B(C   2,N   0)                  1.3507         0.646558   
      3. B(C   3,C   2)                  1.3995         0.603422   
      4. B(O   4,C   3)                  1.3483         0.652215   
      5. B(H   5,O   4)                  0.9665         0.507717   
      6. B(C   6,C   3)                  1.4184         0.562961   
      7. B(C   7,C   6)                  1.5103         0.401632   
      8. B(C   8,C   6)                  1.4154         0.569147   
      9. B(C   9,C   8)                  1.5144         0.395627   
     10. B(C  10,C   8)                  1.3997         0.603000   
     11. B(C  10,N   0)                  1.3546         0.637361   
     12. B(H  11,C   1)                  1.0923         0.357032   
     13. B(H  12,C   1)                  1.0894         0.360850   
     14. B(H  13,C   1)                  1.0898         0.360372   
     15. B(H  14,C   2)                  1.0832         0.369202   
     16. B(H  15,C   7)                  1.0976         0.350199   
     17. B(H  16,C   7)                  1.0886         0.361950   
     18. B(H  17,C   7)                  1.0976         0.350236   
     19. B(H  18,C   9)                  1.0943         0.354428   
     20. B(H  19,C   9)                  1.0916         0.357953   
     21. B(H  20,C   9)                  1.0945         0.354245   
     22. B(H  21,C  10)                  1.0832         0.369272   
     23. A(C   1,N   0,C   2)          119.1164         0.398412   
     24. A(C   1,N   0,C  10)          119.7414         0.397411   
     25. A(C   2,N   0,C  10)          121.1103         0.433797   
     26. A(H  12,C   1,H  13)          109.3622         0.290969   
     27. A(N   0,C   1,H  11)          109.3240         0.324892   
     28. A(H  11,C   1,H  13)          109.9542         0.290483   
     29. A(N   0,C   1,H  13)          109.1547         0.325390   
     30. A(N   0,C   1,H  12)          109.0959         0.325461   
     31. A(H  11,C   1,H  12)          109.9303         0.290544   
     32. A(C   3,C   2,H  14)          121.5127         0.352781   
     33. A(N   0,C   2,H  14)          118.3531         0.354731   
     34. A(N   0,C   2,C   3)          120.1342         0.432378   
     35. A(C   2,C   3,O   4)          115.6217         0.433056   
     36. A(C   2,C   3,C   6)          120.3772         0.424546   
     37. A(O   4,C   3,C   6)          124.0004         0.427693   
     38. A(C   3,O   4,H   5)          111.4114         0.371829   
     39. A(C   3,C   6,C   7)          119.0024         0.395011   
     40. A(C   7,C   6,C   8)          123.1483         0.395769   
     41. A(C   3,C   6,C   8)          117.8486         0.420134   
     42. A(H  15,C   7,H  17)          107.9729         0.288313   
     43. A(H  15,C   7,H  16)          107.4522         0.289803   
     44. A(C   6,C   7,H  16)          112.2479         0.328485   
     45. A(C   6,C   7,H  15)          110.7777         0.326703   
     46. A(C   6,C   7,H  17)          110.8758         0.326709   
     47. A(H  16,C   7,H  17)          107.3218         0.289807   
     48. A(C   9,C   8,C  10)          118.6914         0.398749   
     49. A(C   6,C   8,C  10)          118.8565         0.425323   
     50. A(C   6,C   8,C   9)          122.4518         0.394724   
     51. A(C   8,C   9,H  19)          111.0675         0.327071   
     52. A(C   8,C   9,H  18)          111.0314         0.326538   
     53. A(H  19,C   9,H  20)          107.8788         0.289820   
     54. A(H  18,C   9,H  20)          107.8138         0.289371   
     55. A(C   8,C   9,H  20)          111.0004         0.326511   
     56. A(H  18,C   9,H  19)          107.9028         0.289843   
     57. A(N   0,C  10,C   8)          121.6731         0.431212   
     58. A(C   8,C  10,H  21)          122.0802         0.352751   
     59. A(N   0,C  10,H  21)          116.2466         0.353882   
     60. D(H  13,C   1,N   0,C  10)    147.8245         0.013330   
     61. D(H  11,C   1,N   0,C  10)    -91.8680         0.013330   
     62. D(H  13,C   1,N   0,C   2)    -34.2060         0.013330   
     63. D(H  11,C   1,N   0,C   2)     86.1016         0.013330   
     64. D(H  12,C   1,N   0,C  10)     28.3747         0.013330   
     65. D(H  12,C   1,N   0,C   2)   -153.6558         0.013330   
     66. D(C   3,C   2,N   0,C  10)     -0.0846         0.034085   
     67. D(H  14,C   2,N   0,C  10)    179.9473         0.034085   
     68. D(C   3,C   2,N   0,C   1)   -178.0254         0.034085   
     69. D(H  14,C   2,N   0,C   1)      2.0065         0.034085   
     70. D(C   6,C   3,C   2,H  14)   -179.9631         0.025117   
     71. D(O   4,C   3,C   2,H  14)      0.3258         0.025117   
     72. D(C   6,C   3,C   2,N   0)      0.0699         0.025117   
     73. D(O   4,C   3,C   2,N   0)   -179.6412         0.025117   
     74. D(H   5,O   4,C   3,C   2)   -179.7116         0.031456   
     75. D(H   5,O   4,C   3,C   6)      0.5890         0.031456   
     76. D(C   8,C   6,C   3,O   4)    179.6538         0.021718   
     77. D(C   8,C   6,C   3,C   2)     -0.0319         0.021718   
     78. D(C   7,C   6,C   3,O   4)     -0.0538         0.021718   
     79. D(C   7,C   6,C   3,C   2)   -179.7395         0.021718   
     80. D(H  17,C   7,C   6,C   8)    121.9140         0.011967   
     81. D(H  17,C   7,C   6,C   3)    -58.3948         0.011967   
     82. D(H  16,C   7,C   6,C   8)      1.8944         0.011967   
     83. D(H  16,C   7,C   6,C   3)   -178.4144         0.011967   
     84. D(H  15,C   7,C   6,C   8)   -118.2234         0.011967   
     85. D(H  15,C   7,C   6,C   3)     61.4678         0.011967   
     86. D(C  10,C   8,C   6,C   7)    179.7034         0.022218   
     87. D(C  10,C   8,C   6,C   3)      0.0088         0.022218   
     88. D(C   9,C   8,C   6,C   7)     -0.1025         0.022218   
     89. D(C   9,C   8,C   6,C   3)   -179.7970         0.022218   
     90. D(H  18,C   9,C   8,C   6)     59.2681         0.011628   
     91. D(H  20,C   9,C   8,C  10)    119.5495         0.011628   
     92. D(H  20,C   9,C   8,C   6)    -60.6443         0.011628   
     93. D(H  19,C   9,C   8,C  10)     -0.4688         0.011628   
     94. D(H  19,C   9,C   8,C   6)    179.3374         0.011628   
     95. D(H  18,C   9,C   8,C  10)   -120.5381         0.011628   
     96. D(H  21,C  10,C   8,C   9)     -0.1323         0.025080   
     97. D(N   0,C  10,C   8,C   9)    179.7901         0.025080   
     98. D(N   0,C  10,C   8,C   6)     -0.0232         0.025080   
     99. D(H  21,C  10,N   0,C   2)    179.9886         0.033041   
    100. D(H  21,C  10,N   0,C   1)     -2.0833         0.033041   
    101. D(H  21,C  10,C   8,C   6)   -179.9456         0.025080   
    102. D(C   8,C  10,N   0,C   2)      0.0619         0.033041   
    103. D(C   8,C  10,N   0,C   1)    177.9900         0.033041   
    -----------------------------------------------------------------

Number of atoms                         .... 22
Number of degrees of freedom            .... 103

         *************************************************************
         *                GEOMETRY OPTIMIZATION CYCLE   1            *
         *************************************************************
---------------------------------
CARTESIAN COORDINATES (ANGSTROEM)
---------------------------------
  N     -1.693405   -0.035584    0.020270
  C     -3.175771   -0.063038   -0.060268
  C     -1.061983    1.155106    0.109162
  C      0.336041    1.208070    0.144564
  O      0.870482    2.442128    0.241569
  H      1.836253    2.408184    0.256634
  C      1.100725    0.014920    0.086071
  C      2.607437    0.107809    0.132524
  C      0.403544   -1.213303   -0.007447
  C      1.114928   -2.548662   -0.071616
  C     -0.995674   -1.195186   -0.037884
  H     -3.483252    0.047768   -1.102554
  H     -3.536635   -1.012151    0.334481
  H     -3.581471    0.753953    0.536040
  H     -1.663914    2.054644    0.152082
  H      2.940755    0.560423    1.075255
  H      3.083200   -0.868072    0.052727
  H      2.986863    0.724751   -0.692132
  H      1.737654   -2.704885    0.814582
  H      0.400123   -3.371725   -0.128798
  H      1.763870   -2.605503   -0.951100
  H     -1.581370   -2.103646   -0.107762

----------------------------
CARTESIAN COORDINATES (A.U.)
----------------------------
  NO LB      ZA    FRAG     MASS         X           Y           Z
   0 N     7.0000    0    14.007   -3.200071   -0.067244    0.038305
   1 C     6.0000    0    12.011   -6.001337   -0.119125   -0.113890
   2 C     6.0000    0    12.011   -2.006858    2.182833    0.206287
   3 C     6.0000    0    12.011    0.635026    2.282921    0.273186
   4 O     8.0000    0    15.999    1.644973    4.614954    0.456499
   5 H     1.0000    0     1.008    3.470015    4.550808    0.484967
   6 C     6.0000    0    12.011    2.080069    0.028195    0.162650
   7 C     6.0000    0    12.011    4.927342    0.203729    0.250434
   8 C     6.0000    0    12.011    0.762587   -2.292810   -0.014073
   9 C     6.0000    0    12.011    2.106910   -4.816273   -0.135335
  10 C     6.0000    0    12.011   -1.881551   -2.258575   -0.071590
  11 H     1.0000    0     1.008   -6.582392    0.090269   -2.083526
  12 H     1.0000    0     1.008   -6.683272   -1.912689    0.632078
  13 H     1.0000    0     1.008   -6.767999    1.424765    1.012969
  14 H     1.0000    0     1.008   -3.144342    3.882715    0.287394
  15 H     1.0000    0     1.008    5.557221    1.059046    2.031937
  16 H     1.0000    0     1.008    5.826403   -1.640419    0.099640
  17 H     1.0000    0     1.008    5.644354    1.369581   -1.307939
  18 H     1.0000    0     1.008    3.283691   -5.111492    1.539337
  19 H     1.0000    0     1.008    0.756122   -6.371638   -0.243394
  20 H     1.0000    0     1.008    3.333231   -4.923687   -1.797318
  21 H     1.0000    0     1.008   -2.988357   -3.975314   -0.203640

--------------------------------
INTERNAL COORDINATES (ANGSTROEM)
--------------------------------
 N      0   0   0     0.000000000000     0.00000000     0.00000000
 C      1   0   0     1.484806096843     0.00000000     0.00000000
 C      1   2   0     1.350680162630   119.11638361     0.00000000
 C      3   1   2     1.399475394980   120.13419431   181.97459037
 O      4   3   1     1.348309106033   115.62165464   180.35876907
 H      5   4   3     0.966484196874   111.41140315   180.28836743
 C      4   3   1     1.418368552360   120.37722601     0.06985653
 C      7   4   3     1.510287104729   119.00243199   180.26046388
 C      7   4   3     1.415393518192   117.84859132   359.96805765
 C      9   7   4     1.514387898672   122.45175968   180.20296064
 C      1   2   3     1.354580077601   119.74141406   182.03043660
 H      2   1   3     1.092329126566   109.32399085    86.10158754
 H      2   1   3     1.089433807771   109.09589680   206.34424748
 H      2   1   3     1.089794153720   109.15467772   325.79401615
 H      3   1   2     1.083204734867   118.35312121     2.00648146
 H      8   7   4     1.097589398080   110.77771975    61.46776002
 H      8   7   4     1.088604836492   112.24787987   181.58561826
 H      8   7   4     1.097560372529   110.87576758   301.60524222
 H     10   9   7     1.094321652336   111.03143121    59.26810057
 H     10   9   7     1.091627589309   111.06748929   179.33737941
 H     10   9   7     1.094462320134   111.00044952   299.35570665
 H     11   1   2     1.083153515860   116.24664821   357.91670529

---------------------------
INTERNAL COORDINATES (A.U.)
---------------------------
 N      0   0   0     0.000000000000     0.00000000     0.00000000
 C      1   0   0     2.805876885009     0.00000000     0.00000000
 C      1   2   0     2.552415601891   119.11638361     0.00000000
 C      3   1   2     2.644625227674   120.13419431   181.97459037
 O      4   3   1     2.547934954274   115.62165464   180.35876907
 H      5   4   3     1.826390444854   111.41140315   180.28836743
 C      4   3   1     2.680328120928   120.37722601     0.06985653
 C      7   4   3     2.854029011532   119.00243199   180.26046388
 C      7   4   3     2.674706121109   117.84859132   359.96805765
 C      9   7   4     2.861778389014   122.45175968   180.20296064
 C      1   2   3     2.559785373132   119.74141406   182.03043660
 H      2   1   3     2.064202897315   109.32399085    86.10158754
 H      2   1   3     2.058731537722   109.09589680   206.34424748
 H      2   1   3     2.059412492880   109.15467772   325.79401615
 H      3   1   2     2.046960295866   118.35312121     2.00648146
 H      8   7   4     2.074143369867   110.77771975    61.46776002
 H      8   7   4     2.057165009033   112.24787987   181.58561826
 H      8   7   4     2.074088519525   110.87576758   301.60524222
 H     10   9   7     2.067968225335   111.03143121    59.26810057
 H     10   9   7     2.062877184027   111.06748929   179.33737941
 H     10   9   7     2.068234048950   111.00044952   299.35570665
 H     11   1   2     2.046863505969   116.24664821   357.91670529

---------------------
BASIS SET INFORMATION
---------------------
There are 4 groups of distinct atoms

 Group   1 Type N   : 11s6p2d1f contracted to 5s3p2d1f pattern {62111/411/11/1}
 Group   2 Type C   : 11s6p2d1f contracted to 5s3p2d1f pattern {62111/411/11/1}
 Group   3 Type O   : 11s6p2d1f contracted to 5s3p2d1f pattern {62111/411/11/1}
 Group   4 Type H   : 5s1p contracted to 3s1p pattern {311/1}

Atom   0N    basis set group =>   1
Atom   1C    basis set group =>   2
Atom   2C    basis set group =>   2
Atom   3C    basis set group =>   2
Atom   4O    basis set group =>   3
Atom   5H    basis set group =>   4
Atom   6C    basis set group =>   2
Atom   7C    basis set group =>   2
Atom   8C    basis set group =>   2
Atom   9C    basis set group =>   2
Atom  10C    basis set group =>   2
Atom  11H    basis set group =>   4
Atom  12H    basis set group =>   4
Atom  13H    basis set group =>   4
Atom  14H    basis set group =>   4
Atom  15H    basis set group =>   4
Atom  16H    basis set group =>   4
Atom  17H    basis set group =>   4
Atom  18H    basis set group =>   4
Atom  19H    basis set group =>   4
Atom  20H    basis set group =>   4
Atom  21H    basis set group =>   4
---------------------------------
AUXILIARY/J BASIS SET INFORMATION
---------------------------------
There are 4 groups of distinct atoms

 Group   1 Type N   : 12s5p4d2f1g contracted to 6s4p3d1f1g pattern {711111/2111/211/2/1}
 Group   2 Type C   : 12s5p4d2f1g contracted to 6s4p3d1f1g pattern {711111/2111/211/2/1}
 Group   3 Type O   : 12s5p4d2f1g contracted to 6s4p3d1f1g pattern {711111/2111/211/2/1}
 Group   4 Type H   : 5s2p1d contracted to 3s1p1d pattern {311/2/1}

Atom   0N    basis set group =>   1
Atom   1C    basis set group =>   2
Atom   2C    basis set group =>   2
Atom   3C    basis set group =>   2
Atom   4O    basis set group =>   3
Atom   5H    basis set group =>   4
Atom   6C    basis set group =>   2
Atom   7C    basis set group =>   2
Atom   8C    basis set group =>   2
Atom   9C    basis set group =>   2
Atom  10C    basis set group =>   2
Atom  11H    basis set group =>   4
Atom  12H    basis set group =>   4
Atom  13H    basis set group =>   4
Atom  14H    basis set group =>   4
Atom  15H    basis set group =>   4
Atom  16H    basis set group =>   4
Atom  17H    basis set group =>   4
Atom  18H    basis set group =>   4
Atom  19H    basis set group =>   4
Atom  20H    basis set group =>   4
Atom  21H    basis set group =>   4


           ************************************************************
           *        Program running with 16 parallel MPI-processes    *
           *              working on a common directory               *
           ************************************************************
------------------------------------------------------------------------------
                           ORCA GTO INTEGRAL CALCULATION
                           -- RI-GTO INTEGRALS CHOSEN --
------------------------------------------------------------------------------
------------------------------------------------------------------------------
                   ___                                                        
                  /   \      - P O W E R E D   B Y -                         
                 /     \                                                     
                 |  |  |   _    _      __       _____    __    __             
                 |  |  |  | |  | |    /  \     |  _  \  |  |  /  |          
                  \  \/   | |  | |   /    \    | | | |  |  | /  /          
                 / \  \   | |__| |  /  /\  \   | |_| |  |  |/  /          
                |  |  |   |  __  | /  /__\  \  |    /   |      \           
                |  |  |   | |  | | |   __   |  |    \   |  |\   \          
                \     /   | |  | | |  |  |  |  | |\  \  |  | \   \       
                 \___/    |_|  |_| |__|  |__|  |_| \__\ |__|  \__/        
                                                                              
                      - O R C A' S   B I G   F R I E N D -                    
                                      &                                       
                       - I N T E G R A L  F E E D E R -                       
                                                                              
 v1 FN, 2020, v2 2021                                                         
------------------------------------------------------------------------------


Reading SHARK input file freq.SHARKINP.tmp ... ok
----------------------
SHARK INTEGRAL PACKAGE
----------------------

Number of atoms                             ...     22
Number of basis functions                   ...    382
Number of shells                            ...    158
Maximum angular momentum                    ...      3
Integral batch strategy                     ... SHARK/LIBINT Hybrid
RI-J (if used) integral strategy            ... SPLIT-RIJ (Revised 2003 algorithm where possible)
Printlevel                                  ...      1
Contraction scheme used                     ... SEGMENTED contraction
Coulomb Range Separation                    ... NOT USED
Exchange Range Separation                   ... NOT USED
Finite Nucleus Model                        ... NOT USED
Auxiliary Coulomb fitting basis             ... AVAILABLE
   # of basis functions in Aux-J            ...    622
   # of shells in Aux-J                     ...    210
   Maximum angular momentum in Aux-J        ...      4
Auxiliary J/K fitting basis                 ... NOT available
Auxiliary Correlation fitting basis         ... NOT available
Auxiliary 'external' fitting basis          ... NOT available
Integral threshold                          ...     2.500000e-11
Primitive cut-off                           ...     2.500000e-12
Primitive pair pre-selection threshold      ...     2.500000e-12

Calculating pre-screening integrals         ... done (  0.1 sec) Dimension = 158
Organizing shell pair data                  ... done (  0.1 sec)
Shell pair information
Total number of shell pairs                 ...     12561
Shell pairs after pre-screening             ...     11023
Total number of primitive shell pairs       ...     37384
Primitive shell pairs kept                  ...     24059
          la=0 lb=0:   3142 shell pairs
          la=1 lb=0:   3178 shell pairs
          la=1 lb=1:    818 shell pairs
          la=2 lb=0:   1542 shell pairs
          la=2 lb=1:    773 shell pairs
          la=2 lb=2:    199 shell pairs
          la=3 lb=0:    743 shell pairs
          la=3 lb=1:    387 shell pairs
          la=3 lb=2:    189 shell pairs
          la=3 lb=3:     52 shell pairs

Calculating one electron integrals          ... done (  0.0 sec)
Calculating RI/J V-Matrix + Cholesky decomp.... done (  0.1 sec)
Calculating Nuclear repulsion               ... done (  0.0 sec) ENN=    532.693869836297 Eh

SHARK setup successfully completed in   0.9 seconds

Maximum memory used throughout the entire GTOINT-calculation: 23.9 MB


           ************************************************************
           *        Program running with 16 parallel MPI-processes    *
           *              working on a common directory               *
           ************************************************************
-------------------------------------------------------------------------------
                                 ORCA SCF
-------------------------------------------------------------------------------

------------
SCF SETTINGS
------------
Hamiltonian:
 Density Functional     Method          .... DFT(GTOs)
 Exchange Functional    Exchange        .... M062X
 Correlation Functional Correlation     .... M062X
 Gradients option       PostSCFGGA      .... off
 Hybrid DFT is turned on
   Fraction HF Exchange ScalHFX         ....  0.540000
   Scaling of DF-GGA-X  ScalDFX         ....  0.460000
   Scaling of DF-GGA-C  ScalDFC         ....  1.000000
   Scaling of DF-LDA-C  ScalLDAC        ....  1.000000
   Perturbative correction              ....  0.000000
   Density functional embedding theory  .... OFF
 RI-approximation to the Coulomb term is turned on
   Number of AuxJ basis functions       .... 622
   RIJ-COSX (HFX calculated with COS-X)).... on


General Settings:
 Integral files         IntName         .... freq
 Hartree-Fock type      HFTyp           .... RHF
 Total Charge           Charge          ....    1
 Multiplicity           Mult            ....    1
 Number of Electrons    NEL             ....   74
 Basis Dimension        Dim             ....  382
 Nuclear Repulsion      ENuc            ....    532.6938698363 Eh

Convergence Acceleration:
 DIIS                   CNVDIIS         .... on
   Start iteration      DIISMaxIt       ....    12
   Startup error        DIISStart       ....  0.200000
   # of expansion vecs  DIISMaxEq       ....     5
   Bias factor          DIISBfac        ....   1.050
   Max. coefficient     DIISMaxC        ....  10.000
 Trust-Rad. Augm. Hess. CNVTRAH         .... auto
   Auto Start mean grad. ratio tolernc. ....  1.125000
   Auto Start start iteration           ....    20
   Auto Start num. interpolation iter.  ....    10
   Max. Number of Micro iterations      ....    16
   Max. Number of Macro iterations      .... Maxiter - #DIIS iter
   Number of Davidson start vectors     ....     2
   Converg. threshold I  (grad. norm)   ....   1.000e-05
   Converg. threshold II (energy diff.) ....   1.000e-08
   Grad. Scal. Fac. for Micro threshold ....   0.100
   Minimum threshold for Micro iter.    ....   0.010
   NR start threshold (gradient norm)   ....   0.001
   Initial trust radius                 ....   0.400
   Minimum AH scaling param. (alpha)    ....   1.000
   Maximum AH scaling param. (alpha)    .... 1000.000
   Orbital update algorithm             .... Taylor
   White noise on init. David. guess    .... on
   Maximum white noise                  ....   0.010
   Quad. conv. algorithm                .... NR
 SOSCF                  CNVSOSCF        .... on
   Start iteration      SOSCFMaxIt      ....   150
   Startup grad/error   SOSCFStart      ....  0.003300
 Level Shifting         CNVShift        .... on
   Level shift para.    LevelShift      ....    0.2500
   Turn off err/grad.   ShiftErr        ....    0.0010
 Zerner damping         CNVZerner       .... off
 Static damping         CNVDamp         .... on
   Fraction old density DampFac         ....    0.7000
   Max. Damping (<1)    DampMax         ....    0.9800
   Min. Damping (>=0)   DampMin         ....    0.0000
   Turn off err/grad.   DampErr         ....    0.1000
 Fernandez-Rico         CNVRico         .... off

SCF Procedure:
 Maximum # iterations   MaxIter         ....   125
 SCF integral mode      SCFMode         .... Direct
   Integral package                     .... SHARK and LIBINT hybrid scheme
 Reset frequency        DirectResetFreq ....    20
 Integral Threshold     Thresh          ....  2.500e-11 Eh
 Primitive CutOff       TCut            ....  2.500e-12 Eh

Convergence Tolerance:
 Convergence Check Mode ConvCheckMode   .... Total+1el-Energy
 Convergence forced     ConvForced      .... 0
 Energy Change          TolE            ....  1.000e-08 Eh
 1-El. energy change                    ....  1.000e-05 Eh
 Orbital Gradient       TolG            ....  1.000e-05
 Orbital Rotation angle TolX            ....  1.000e-05
 DIIS Error             TolErr          ....  5.000e-07


Diagonalization of the overlap matrix:
Smallest eigenvalue                        ... 3.190e-05
Time for diagonalization                   ...    0.071 sec
Threshold for overlap eigenvalues          ... 1.000e-08
Number of eigenvalues below threshold      ... 0
Time for construction of square roots      ...    0.038 sec
Total time needed                          ...    0.109 sec

Time for model grid setup =    0.167 sec

------------------------------
INITIAL GUESS: MODEL POTENTIAL
------------------------------
Loading Hartree-Fock densities                     ... done
Calculating cut-offs                               ... done
Initializing the effective Hamiltonian             ... done
Setting up the integral package (SHARK)            ... done
Starting the Coulomb interaction                   ... done (   0.2 sec)
Reading the grid                                   ... done
Mapping shells                                     ... done
Starting the XC term evaluation                    ... done (   0.1 sec)
  promolecular density results
     # of electrons  =     74.990528601
     EX              =    -59.189428292
     EC              =     -2.491264578
     EX+EC           =    -61.680692870
Transforming the Hamiltonian                       ... done (   0.0 sec)
Diagonalizing the Hamiltonian                      ... done (   0.0 sec)
Back transforming the eigenvectors                 ... done (   0.0 sec)
Now organizing SCF variables                       ... done
                      ------------------
                      INITIAL GUESS DONE (   0.6 sec)
                      ------------------
-------------------
DFT GRID GENERATION
-------------------

General Integration Accuracy     IntAcc      ... 4.388
Radial Grid Type                 RadialGrid  ... OptM3 with GC (2021)
Angular Grid (max. ang.)         AngularGrid ... 4 (Lebedev-302)
Angular grid pruning method      GridPruning ... 4 (adaptive)
Weight generation scheme         WeightScheme... Becke
Basis function cutoff            BFCut       ... 1.0000e-11
Integration weight cutoff        WCut        ... 1.0000e-14
Angular grids for H and He will be reduced by one unit
Partially contracted basis set               ... off
Rotationally invariant grid construction     ... off

Total number of grid points                  ...    98447
Total number of batches                      ...     1550
Average number of points per batch           ...       63
Average number of grid points per atom       ...     4475
Time for grid setup =    0.487 sec

--------------------
COSX GRID GENERATION
--------------------

GRIDX 1
-------
General Integration Accuracy     IntAcc      ... 3.816
Radial Grid Type                 RadialGrid  ... OptM3 with GC (2021)
Angular Grid (max. ang.)         AngularGrid ... 1 (Lebedev-50)
Angular grid pruning method      GridPruning ... 4 (adaptive)
Weight generation scheme         WeightScheme... Becke
Basis function cutoff            BFCut       ... 1.0000e-11
Integration weight cutoff        WCut        ... 1.0000e-14
Angular grids for H and He will be reduced by one unit
Partially contracted basis set               ... on
Rotationally invariant grid construction     ... off

Total number of grid points                  ...    12601
Total number of batches                      ...      205
Average number of points per batch           ...       61
Average number of grid points per atom       ...      573
UseSFitting                                  ... on

GRIDX 2
-------
General Integration Accuracy     IntAcc      ... 4.020
Radial Grid Type                 RadialGrid  ... OptM3 with GC (2021)
Angular Grid (max. ang.)         AngularGrid ... 2 (Lebedev-110)
Angular grid pruning method      GridPruning ... 4 (adaptive)
Weight generation scheme         WeightScheme... Becke
Basis function cutoff            BFCut       ... 1.0000e-11
Integration weight cutoff        WCut        ... 1.0000e-14
Angular grids for H and He will be reduced by one unit
Partially contracted basis set               ... on
Rotationally invariant grid construction     ... off

Total number of grid points                  ...    26800
Total number of batches                      ...      431
Average number of points per batch           ...       62
Average number of grid points per atom       ...     1218
UseSFitting                                  ... on

GRIDX 3
-------
General Integration Accuracy     IntAcc      ... 4.338
Radial Grid Type                 RadialGrid  ... OptM3 with GC (2021)
Angular Grid (max. ang.)         AngularGrid ... 3 (Lebedev-194)
Angular grid pruning method      GridPruning ... 4 (adaptive)
Weight generation scheme         WeightScheme... Becke
Basis function cutoff            BFCut       ... 1.0000e-11
Integration weight cutoff        WCut        ... 1.0000e-14
Angular grids for H and He will be reduced by one unit
Partially contracted basis set               ... on
Rotationally invariant grid construction     ... off

Total number of grid points                  ...    58741
Total number of batches                      ...      931
Average number of points per batch           ...       63
Average number of grid points per atom       ...     2670
UseSFitting                                  ... on

Time for X-Grid setup             =    1.110 sec

--------------
SCF ITERATIONS
--------------
ITER       Energy         Delta-E        Max-DP      RMS-DP      [F,P]     Damp
               ***  Starting incremental Fock matrix formation  ***
  0   -441.6010513526   0.000000000000 0.07129551  0.00096764  0.2073926 0.7000
  1   -441.6848448830  -0.083793530356 0.06906360  0.00080552  0.1021183 0.7000
                               ***Turning on DIIS***
  2   -441.7260059696  -0.041161086577 0.11916378  0.00169673  0.0459285 0.0000
  3   -441.7917248272  -0.065718857609 0.05225840  0.00043200  0.0483342 0.0000
  4   -441.8023666271  -0.010641799967 0.00574950  0.00010186  0.0081437 0.0000
  5   -441.8026321565  -0.000265529347 0.00559849  0.00005512  0.0042753 0.0000
                      *** Initiating the SOSCF procedure ***
                           *** Shutting down DIIS ***
                      *** Re-Reading the Fockian *** 
                      *** Removing any level shift *** 
ITER      Energy       Delta-E        Grad      Rot      Max-DP    RMS-DP
  6   -441.80266690  -0.0000347475  0.000205  0.000205  0.002568  0.000027
               *** Restarting incremental Fock matrix formation ***
  7   -441.80259592   0.0000709802  0.000184  0.000682  0.001778  0.000018
  8   -441.80259577   0.0000001500  0.000243  0.000304  0.000362  0.000004
  9   -441.80259683  -0.0000010582  0.000033  0.000106  0.000082  0.000001
 10   -441.80259683   0.0000000068  0.000020  0.000020  0.000032  0.000000
 11   -441.80259685  -0.0000000241  0.000003  0.000011  0.000022  0.000000
 12   -441.80259686  -0.0000000067  0.000003  0.000005  0.000004  0.000000
                  ***Gradient check signals convergence***
              ***Rediagonalizing the Fockian in SOSCF/NRSCF***

               *****************************************************
               *                     SUCCESS                       *
               *           SCF CONVERGED AFTER  13 CYCLES          *
               *****************************************************

Old exchange energy                            =    -32.570343732 Eh
New exchange energy                            =    -32.570347388 Eh
Exchange energy change after final integration =     -0.000003656 Eh
Total energy after final integration           =   -441.802600499 Eh
Final COS-X integration done in                =     3.557 sec

----------------
TOTAL SCF ENERGY
----------------

Total Energy       :         -441.80260050 Eh          -12022.05995 eV

Components:
Nuclear Repulsion  :          532.69386984 Eh           14495.33713 eV
Electronic Energy  :         -974.49647034 Eh          -26517.39708 eV
One Electron Energy:        -1640.07920250 Eh          -44628.82399 eV
Two Electron Energy:          665.58273216 Eh           18111.42691 eV
Max COSX asymmetry :            0.00000280 Eh               0.00008 eV

Virial components:
Potential Energy   :         -881.07096207 Eh          -23975.15975 eV
Kinetic Energy     :          439.26836157 Eh           11953.09980 eV
Virial Ratio       :            2.00576923


DFT components:
N(Alpha)           :       37.000099077934 electrons
N(Beta)            :       37.000099077934 electrons
N(Total)           :       74.000198155868 electrons
E(XC)              :      -30.392374181344 Eh       
DFET-embed. en.    :        0.000000000000 Eh       

---------------
SCF CONVERGENCE
---------------

  Last Energy change         ...    1.3175e-08  Tolerance :   1.0000e-08
  Last MAX-Density change    ...    1.8388e-15  Tolerance :   1.0000e-07
  Last RMS-Density change    ...    1.8365e-17  Tolerance :   5.0000e-09
  Last Orbital Gradient      ...    4.8111e-07  Tolerance :   1.0000e-05
  Last Orbital Rotation      ...    1.4533e-06  Tolerance :   1.0000e-05

             **** THE GBW FILE WAS UPDATED (freq.gbw) ****
             **** DENSITY freq.scfp WAS UPDATED ****
             **** ENERGY FILE WAS UPDATED (freq.en.tmp) ****
             **** THE GBW FILE WAS UPDATED (freq.gbw) ****
             **** DENSITY freq.scfp WAS UPDATED ****
----------------
ORBITAL ENERGIES
----------------

  NO   OCC          E(Eh)            E(eV) 
   0   2.0000     -19.822341      -539.3933 
   1   2.0000     -15.024379      -408.8341 
   2   2.0000     -10.793138      -293.6962 
   3   2.0000     -10.769555      -293.0545 
   4   2.0000     -10.767176      -292.9898 
   5   2.0000     -10.746881      -292.4375 
   6   2.0000     -10.746728      -292.4333 
   7   2.0000     -10.741148      -292.2815 
   8   2.0000     -10.696710      -291.0723 
   9   2.0000     -10.685779      -290.7748 
  10   2.0000      -1.357975       -36.9524 
  11   2.0000      -1.294974       -35.2380 
  12   2.0000      -1.112477       -30.2720 
  13   2.0000      -1.056772       -28.7562 
  14   2.0000      -1.014445       -27.6044 
  15   2.0000      -0.976677       -26.5767 
  16   2.0000      -0.945440       -25.7267 
  17   2.0000      -0.892312       -24.2811 
  18   2.0000      -0.859574       -23.3902 
  19   2.0000      -0.795897       -21.6575 
  20   2.0000      -0.777579       -21.1590 
  21   2.0000      -0.756942       -20.5974 
  22   2.0000      -0.726919       -19.7805 
  23   2.0000      -0.693381       -18.8679 
  24   2.0000      -0.676710       -18.4142 
  25   2.0000      -0.674845       -18.3635 
  26   2.0000      -0.655986       -17.8503 
  27   2.0000      -0.642232       -17.4760 
  28   2.0000      -0.638134       -17.3645 
  29   2.0000      -0.631221       -17.1764 
  30   2.0000      -0.626207       -17.0400 
  31   2.0000      -0.604201       -16.4411 
  32   2.0000      -0.600266       -16.3341 
  33   2.0000      -0.589584       -16.0434 
  34   2.0000      -0.577015       -15.7014 
  35   2.0000      -0.495476       -13.4826 
  36   2.0000      -0.465792       -12.6749 
  37   0.0000      -0.195471        -5.3190 
  38   0.0000      -0.150817        -4.1039 
  39   0.0000      -0.082512        -2.2453 
  40   0.0000      -0.073842        -2.0093 
  41   0.0000      -0.044955        -1.2233 
  42   0.0000      -0.043529        -1.1845 
  43   0.0000      -0.033595        -0.9142 
  44   0.0000      -0.027129        -0.7382 
  45   0.0000      -0.022603        -0.6151 
  46   0.0000      -0.002333        -0.0635 
  47   0.0000       0.004608         0.1254 
  48   0.0000       0.011595         0.3155 
  49   0.0000       0.014182         0.3859 
  50   0.0000       0.017143         0.4665 
  51   0.0000       0.021596         0.5876 
  52   0.0000       0.031188         0.8487 
  53   0.0000       0.034181         0.9301 
  54   0.0000       0.042687         1.1616 
  55   0.0000       0.058122         1.5816 
  56   0.0000       0.067180         1.8281 
  57   0.0000       0.087115         2.3705 
  58   0.0000       0.089983         2.4486 
  59   0.0000       0.095538         2.5997 
  60   0.0000       0.114111         3.1051 
  61   0.0000       0.125677         3.4199 
  62   0.0000       0.132990         3.6188 
  63   0.0000       0.140185         3.8146 
  64   0.0000       0.142886         3.8881 
  65   0.0000       0.154039         4.1916 
  66   0.0000       0.160003         4.3539 
  67   0.0000       0.171783         4.6745 
  68   0.0000       0.173726         4.7273 
  69   0.0000       0.179584         4.8867 
  70   0.0000       0.189021         5.1435 
  71   0.0000       0.197465         5.3733 
  72   0.0000       0.212456         5.7812 
  73   0.0000       0.236459         6.4344 
  74   0.0000       0.238782         6.4976 
  75   0.0000       0.243452         6.6247 
  76   0.0000       0.253636         6.9018 
  77   0.0000       0.269274         7.3273 
  78   0.0000       0.279113         7.5951 
  79   0.0000       0.283916         7.7258 
  80   0.0000       0.289698         7.8831 
  81   0.0000       0.308721         8.4007 
  82   0.0000       0.314029         8.5452 
  83   0.0000       0.317900         8.6505 
  84   0.0000       0.326536         8.8855 
  85   0.0000       0.333754         9.0819 
  86   0.0000       0.343142         9.3374 
  87   0.0000       0.346702         9.4342 
  88   0.0000       0.358989         9.7686 
  89   0.0000       0.361336         9.8325 
  90   0.0000       0.370327        10.0771 
  91   0.0000       0.374407        10.1881 
  92   0.0000       0.377286        10.2665 
  93   0.0000       0.382239        10.4012 
  94   0.0000       0.391145        10.6436 
  95   0.0000       0.403958        10.9923 
  96   0.0000       0.417880        11.3711 
  97   0.0000       0.439764        11.9666 
  98   0.0000       0.458864        12.4863 
  99   0.0000       0.467787        12.7291 
 100   0.0000       0.473597        12.8872 
 101   0.0000       0.481347        13.0981 
 102   0.0000       0.484331        13.1793 
 103   0.0000       0.487754        13.2725 
 104   0.0000       0.493858        13.4386 
 105   0.0000       0.509260        13.8577 
 106   0.0000       0.523194        14.2368 
 107   0.0000       0.547437        14.8965 
 108   0.0000       0.565168        15.3790 
 109   0.0000       0.567424        15.4404 
 110   0.0000       0.577832        15.7236 
 111   0.0000       0.604038        16.4367 
 112   0.0000       0.607158        16.5216 
 113   0.0000       0.614375        16.7180 
 114   0.0000       0.636480        17.3195 
 115   0.0000       0.660773        17.9805 
 116   0.0000       0.668823        18.1996 
 117   0.0000       0.682035        18.5591 
 118   0.0000       0.699846        19.0438 
 119   0.0000       0.716019        19.4839 
 120   0.0000       0.725183        19.7332 
 121   0.0000       0.751694        20.4546 
 122   0.0000       0.761873        20.7316 
 123   0.0000       0.782947        21.3051 
 124   0.0000       0.787657        21.4332 
 125   0.0000       0.807732        21.9795 
 126   0.0000       0.811775        22.0895 
 127   0.0000       0.832067        22.6417 
 128   0.0000       0.871697        23.7201 
 129   0.0000       0.881726        23.9930 
 130   0.0000       0.890584        24.2340 
 131   0.0000       0.904988        24.6260 
 132   0.0000       0.928398        25.2630 
 133   0.0000       0.929185        25.2844 
 134   0.0000       0.946608        25.7585 
 135   0.0000       0.956927        26.0393 
 136   0.0000       0.992437        27.0056 
 137   0.0000       1.021331        27.7918 
 138   0.0000       1.027760        27.9668 
 139   0.0000       1.042291        28.3622 
 140   0.0000       1.044198        28.4141 
 141   0.0000       1.054414        28.6921 
 142   0.0000       1.078358        29.3436 
 143   0.0000       1.094206        29.7749 
 144   0.0000       1.111497        30.2454 
 145   0.0000       1.155587        31.4451 
 146   0.0000       1.179635        32.0995 
 147   0.0000       1.192512        32.4499 
 148   0.0000       1.224688        33.3255 
 149   0.0000       1.244483        33.8641 
 150   0.0000       1.255494        34.1637 
 151   0.0000       1.270060        34.5601 
 152   0.0000       1.276414        34.7330 
 153   0.0000       1.292106        35.1600 
 154   0.0000       1.310858        35.6703 
 155   0.0000       1.326888        36.1065 
 156   0.0000       1.357026        36.9266 
 157   0.0000       1.367971        37.2244 
 158   0.0000       1.382493        37.6195 
 159   0.0000       1.400884        38.1200 
 160   0.0000       1.416447        38.5435 
 161   0.0000       1.419304        38.6212 
 162   0.0000       1.428930        38.8832 
 163   0.0000       1.431298        38.9476 
 164   0.0000       1.435885        39.0724 
 165   0.0000       1.449913        39.4541 
 166   0.0000       1.459022        39.7020 
 167   0.0000       1.465432        39.8764 
 168   0.0000       1.502637        40.8888 
 169   0.0000       1.504287        40.9337 
 170   0.0000       1.508644        41.0523 
 171   0.0000       1.519506        41.3479 
 172   0.0000       1.536206        41.8023 
 173   0.0000       1.537134        41.8275 
 174   0.0000       1.560872        42.4735 
 175   0.0000       1.575554        42.8730 
 176   0.0000       1.583795        43.0973 
 177   0.0000       1.604970        43.6735 
 178   0.0000       1.611632        43.8547 
 179   0.0000       1.624274        44.1987 
 180   0.0000       1.667400        45.3723 
 181   0.0000       1.689263        45.9672 
 182   0.0000       1.709446        46.5164 
 183   0.0000       1.714265        46.6475 
 184   0.0000       1.730588        47.0917 
 185   0.0000       1.778880        48.4058 
 186   0.0000       1.782404        48.5017 
 187   0.0000       1.806143        49.1477 
 188   0.0000       1.818292        49.4782 
 189   0.0000       1.838373        50.0247 
 190   0.0000       1.857341        50.5408 
 191   0.0000       1.868235        50.8373 
 192   0.0000       1.886731        51.3406 
 193   0.0000       1.906832        51.8875 
 194   0.0000       1.913042        52.0565 
 195   0.0000       1.926498        52.4227 
 196   0.0000       1.941793        52.8389 
 197   0.0000       1.958163        53.2843 
 198   0.0000       1.967450        53.5370 
 199   0.0000       1.984675        54.0057 
 200   0.0000       1.988727        54.1160 
 201   0.0000       2.004234        54.5380 
 202   0.0000       2.045283        55.6550 
 203   0.0000       2.072142        56.3859 
 204   0.0000       2.082637        56.6714 
 205   0.0000       2.110358        57.4258 
 206   0.0000       2.118603        57.6501 
 207   0.0000       2.125929        57.8495 
 208   0.0000       2.146966        58.4219 
 209   0.0000       2.153545        58.6009 
 210   0.0000       2.170282        59.0564 
 211   0.0000       2.178599        59.2827 
 212   0.0000       2.207907        60.0802 
 213   0.0000       2.221537        60.4511 
 214   0.0000       2.228670        60.6452 
 215   0.0000       2.231384        60.7190 
 216   0.0000       2.236230        60.8509 
 217   0.0000       2.281844        62.0921 
 218   0.0000       2.286363        62.2151 
 219   0.0000       2.303733        62.6877 
 220   0.0000       2.315391        63.0050 
 221   0.0000       2.346169        63.8425 
 222   0.0000       2.352053        64.0026 
 223   0.0000       2.369466        64.4764 
 224   0.0000       2.385173        64.9039 
 225   0.0000       2.395580        65.1870 
 226   0.0000       2.404256        65.4231 
 227   0.0000       2.419859        65.8477 
 228   0.0000       2.423366        65.9431 
 229   0.0000       2.443287        66.4852 
 230   0.0000       2.468024        67.1584 
 231   0.0000       2.476955        67.4014 
 232   0.0000       2.490814        67.7785 
 233   0.0000       2.515996        68.4637 
 234   0.0000       2.519563        68.5608 
 235   0.0000       2.549342        69.3711 
 236   0.0000       2.555748        69.5454 
 237   0.0000       2.558656        69.6246 
 238   0.0000       2.570241        69.9398 
 239   0.0000       2.607610        70.9567 
 240   0.0000       2.635776        71.7231 
 241   0.0000       2.665479        72.5314 
 242   0.0000       2.686534        73.1043 
 243   0.0000       2.710001        73.7429 
 244   0.0000       2.721751        74.0626 
 245   0.0000       2.736610        74.4669 
 246   0.0000       2.741510        74.6003 
 247   0.0000       2.751734        74.8785 
 248   0.0000       2.765584        75.2554 
 249   0.0000       2.780338        75.6569 
 250   0.0000       2.782122        75.7054 
 251   0.0000       2.795220        76.0618 
 252   0.0000       2.830359        77.0180 
 253   0.0000       2.841990        77.3345 
 254   0.0000       2.846292        77.4515 
 255   0.0000       2.865064        77.9623 
 256   0.0000       2.881392        78.4066 
 257   0.0000       2.904138        79.0256 
 258   0.0000       2.907489        79.1168 
 259   0.0000       2.913682        79.2853 
 260   0.0000       2.927019        79.6482 
 261   0.0000       2.938829        79.9696 
 262   0.0000       2.951201        80.3063 
 263   0.0000       2.959411        80.5297 
 264   0.0000       2.963494        80.6408 
 265   0.0000       2.995241        81.5047 
 266   0.0000       3.021401        82.2165 
 267   0.0000       3.030957        82.4765 
 268   0.0000       3.042946        82.8028 
 269   0.0000       3.057539        83.1999 
 270   0.0000       3.068941        83.5101 
 271   0.0000       3.081633        83.8555 
 272   0.0000       3.083340        83.9019 
 273   0.0000       3.092931        84.1629 
 274   0.0000       3.104864        84.4876 
 275   0.0000       3.111087        84.6570 
 276   0.0000       3.128659        85.1352 
 277   0.0000       3.130930        85.1969 
 278   0.0000       3.139929        85.4418 
 279   0.0000       3.147510        85.6481 
 280   0.0000       3.171888        86.3115 
 281   0.0000       3.175247        86.4029 
 282   0.0000       3.183438        86.6258 
 283   0.0000       3.198890        87.0462 
 284   0.0000       3.203954        87.1840 
 285   0.0000       3.226200        87.7894 
 286   0.0000       3.236530        88.0705 
 287   0.0000       3.257317        88.6361 
 288   0.0000       3.280599        89.2696 
 289   0.0000       3.298478        89.7561 
 290   0.0000       3.308021        90.0158 
 291   0.0000       3.333960        90.7217 
 292   0.0000       3.348134        91.1074 
 293   0.0000       3.356200        91.3268 
 294   0.0000       3.373098        91.7867 
 295   0.0000       3.391645        92.2913 
 296   0.0000       3.417138        92.9850 
 297   0.0000       3.419617        93.0525 
 298   0.0000       3.483254        94.7842 
 299   0.0000       3.495482        95.1169 
 300   0.0000       3.504955        95.3747 
 301   0.0000       3.529486        96.0422 
 302   0.0000       3.544196        96.4425 
 303   0.0000       3.562268        96.9342 
 304   0.0000       3.587596        97.6234 
 305   0.0000       3.606354        98.1339 
 306   0.0000       3.647465        99.2526 
 307   0.0000       3.668658        99.8293 
 308   0.0000       3.724549       101.3501 
 309   0.0000       3.727484       101.4300 
 310   0.0000       3.748113       101.9913 
 311   0.0000       3.765215       102.4567 
 312   0.0000       3.788579       103.0925 
 313   0.0000       3.802706       103.4769 
 314   0.0000       3.838447       104.4495 
 315   0.0000       3.871058       105.3368 
 316   0.0000       3.932175       106.9999 
 317   0.0000       3.935117       107.0800 
 318   0.0000       3.968543       107.9895 
 319   0.0000       3.978804       108.2688 
 320   0.0000       3.984250       108.4169 
 321   0.0000       4.014745       109.2468 
 322   0.0000       4.033123       109.7469 
 323   0.0000       4.084238       111.1378 
 324   0.0000       4.110861       111.8622 
 325   0.0000       4.118906       112.0811 
 326   0.0000       4.137218       112.5794 
 327   0.0000       4.144384       112.7744 
 328   0.0000       4.157175       113.1225 
 329   0.0000       4.210910       114.5847 
 330   0.0000       4.221163       114.8637 
 331   0.0000       4.256002       115.8117 
 332   0.0000       4.304819       117.1401 
 333   0.0000       4.325284       117.6970 
 334   0.0000       4.330475       117.8382 
 335   0.0000       4.369810       118.9086 
 336   0.0000       4.391415       119.4965 
 337   0.0000       4.415178       120.1431 
 338   0.0000       4.460467       121.3755 
 339   0.0000       4.504121       122.5634 
 340   0.0000       4.595993       125.0633 
 341   0.0000       4.653668       126.6327 
 342   0.0000       4.668140       127.0265 
 343   0.0000       4.723299       128.5275 
 344   0.0000       4.789587       130.3313 
 345   0.0000       4.805487       130.7640 
 346   0.0000       4.838427       131.6603 
 347   0.0000       4.853223       132.0629 
 348   0.0000       4.923842       133.9846 
 349   0.0000       4.971804       135.2897 
 350   0.0000       4.995690       135.9396 
 351   0.0000       5.041734       137.1925 
 352   0.0000       5.053389       137.5097 
 353   0.0000       5.112249       139.1114 
 354   0.0000       5.175915       140.8438 
 355   0.0000       5.227483       142.2470 
 356   0.0000       5.253800       142.9632 
 357   0.0000       5.348285       145.5342 
 358   0.0000       5.355617       145.7338 
 359   0.0000       5.555028       151.1600 
 360   0.0000       5.577411       151.7691 
 361   0.0000       5.627129       153.1220 
 362   0.0000       5.648115       153.6930 
 363   0.0000       5.769325       156.9913 
 364   0.0000       5.892035       160.3304 
 365   0.0000       6.188786       168.4054 
 366   0.0000       6.241337       169.8354 
 367   0.0000       6.257367       170.2716 
 368   0.0000       6.558594       178.4684 
 369   0.0000       6.629999       180.4114 
 370   0.0000       6.839246       186.1054 
 371   0.0000       7.124380       193.8642 
 372   0.0000      22.307433       607.0161 
 373   0.0000      22.340950       607.9282 
 374   0.0000      22.401844       609.5852 
 375   0.0000      22.448540       610.8558 
 376   0.0000      22.730022       618.5153 
 377   0.0000      22.784545       619.9990 
 378   0.0000      22.925423       623.8325 
 379   0.0000      23.290975       633.7797 
 380   0.0000      32.755490       891.3222 
 381   0.0000      43.960988      1196.2393 

                    ********************************
                    * MULLIKEN POPULATION ANALYSIS *
                    ********************************

-----------------------
MULLIKEN ATOMIC CHARGES
-----------------------
   0 N :   -0.001800
   1 C :   -0.320541
   2 C :   -0.026740
   3 C :    0.167299
   4 O :   -0.379417
   5 H :    0.361216
   6 C :    0.121039
   7 C :   -0.589279
   8 C :    0.032285
   9 C :   -0.518891
  10 C :   -0.022256
  11 H :    0.211835
  12 H :    0.182484
  13 H :    0.187366
  14 H :    0.220552
  15 H :    0.214318
  16 H :    0.187825
  17 H :    0.207304
  18 H :    0.200175
  19 H :    0.162581
  20 H :    0.199995
  21 H :    0.202650
Sum of atomic charges:    1.0000000

--------------------------------
MULLIKEN REDUCED ORBITAL CHARGES
--------------------------------
  0 N s       :     3.442359  s :     3.442359
      pz      :     1.318025  p :     3.478156
      px      :     1.077913
      py      :     1.082218
      dz2     :     0.004344  d :     0.076229
      dxz     :     0.013260
      dyz     :     0.020999
      dx2y2   :     0.020505
      dxy     :     0.017122
      f0      :     0.000979  f :     0.005055
      f+1     :     0.000654
      f-1     :     0.000619
      f+2     :     0.000374
      f-2     :     0.000569
      f+3     :     0.000582
      f-3     :     0.001280
  1 C s       :     3.328119  s :     3.328119
      pz      :     1.126014  p :     2.928265
      px      :     0.694014
      py      :     1.108237
      dz2     :     0.008169  d :     0.059738
      dxz     :     0.018996
      dyz     :     0.006201
      dx2y2   :     0.015037
      dxy     :     0.011335
      f0      :     0.000933  f :     0.004419
      f+1     :     0.000537
      f-1     :     0.000124
      f+2     :     0.001022
      f-2     :     0.000100
      f+3     :     0.000898
      f-3     :     0.000804
  2 C s       :     3.127312  s :     3.127312
      pz      :     0.960998  p :     2.811109
      px      :     0.969354
      py      :     0.880758
      dz2     :     0.005126  d :     0.078665
      dxz     :     0.020130
      dyz     :     0.017386
      dx2y2   :     0.016596
      dxy     :     0.019427
      f0      :     0.001815  f :     0.009654
      f+1     :     0.000988
      f-1     :     0.001168
      f+2     :     0.000988
      f-2     :     0.000915
      f+3     :     0.001250
      f-3     :     0.002531
  3 C s       :     3.101515  s :     3.101515
      pz      :     0.898150  p :     2.540610
      px      :     0.916803
      py      :     0.725656
      dz2     :     0.005527  d :     0.176205
      dxz     :     0.028728
      dyz     :     0.047174
      dx2y2   :     0.056092
      dxy     :     0.038685
      f0      :     0.002463  f :     0.014371
      f+1     :     0.001017
      f-1     :     0.001440
      f+2     :     0.001903
      f-2     :     0.001510
      f+3     :     0.001278
      f-3     :     0.004760
  4 O s       :     3.795835  s :     3.795835
      pz      :     1.794187  p :     4.551204
      px      :     1.332807
      py      :     1.424210
      dz2     :     0.004336  d :     0.030538
      dxz     :     0.001151
      dyz     :     0.006019
      dx2y2   :     0.013554
      dxy     :     0.005477
      f0      :     0.000272  f :     0.001840
      f+1     :     0.000440
      f-1     :     0.000311
      f+2     :     0.000052
      f-2     :     0.000096
      f+3     :     0.000522
      f-3     :     0.000146
  5 H s       :     0.590871  s :     0.590871
      pz      :     0.015738  p :     0.047913
      px      :     0.021924
      py      :     0.010251
  6 C s       :     3.129719  s :     3.129719
      pz      :     0.899009  p :     2.647555
      px      :     0.856282
      py      :     0.892264
      dz2     :     0.005934  d :     0.093793
      dxz     :     0.026305
      dyz     :     0.016711
      dx2y2   :     0.012367
      dxy     :     0.032476
      f0      :     0.001302  f :     0.007894
      f+1     :     0.000862
      f-1     :     0.000735
      f+2     :     0.000659
      f-2     :     0.000754
      f+3     :     0.001144
      f-3     :     0.002437
  7 C s       :     3.455730  s :     3.455730
      pz      :     1.082295  p :     3.086023
      px      :     0.848717
      py      :     1.155012
      dz2     :     0.005856  d :     0.044578
      dxz     :     0.012888
      dyz     :     0.007946
      dx2y2   :     0.007812
      dxy     :     0.010076
      f0      :     0.000262  f :     0.002948
      f+1     :     0.000381
      f-1     :     0.000582
      f+2     :     0.000354
      f-2     :     0.000123
      f+3     :     0.000734
      f-3     :     0.000512
  8 C s       :     3.154585  s :     3.154585
      pz      :     0.899110  p :     2.706325
      px      :     0.917881
      py      :     0.889334
      dz2     :     0.004286  d :     0.098449
      dxz     :     0.024486
      dyz     :     0.023029
      dx2y2   :     0.017700
      dxy     :     0.028948
      f0      :     0.001436  f :     0.008356
      f+1     :     0.000782
      f-1     :     0.000876
      f+2     :     0.000854
      f-2     :     0.000807
      f+3     :     0.001049
      f-3     :     0.002550
  9 C s       :     3.422657  s :     3.422657
      pz      :     1.086283  p :     3.048350
      px      :     1.063308
      py      :     0.898758
      dz2     :     0.006527  d :     0.044934
      dxz     :     0.010777
      dyz     :     0.008657
      dx2y2   :     0.009052
      dxy     :     0.009921
      f0      :     0.000233  f :     0.002950
      f+1     :     0.000782
      f-1     :     0.000232
      f+2     :     0.000214
      f-2     :     0.000265
      f+3     :     0.000671
      f-3     :     0.000553
 10 C s       :     3.113378  s :     3.113378
      pz      :     0.951334  p :     2.813151
      px      :     0.981677
      py      :     0.880140
      dz2     :     0.004598  d :     0.086244
      dxz     :     0.021542
      dyz     :     0.016108
      dx2y2   :     0.017394
      dxy     :     0.026601
      f0      :     0.001776  f :     0.009483
      f+1     :     0.000922
      f-1     :     0.001064
      f+2     :     0.000842
      f-2     :     0.001043
      f+3     :     0.001227
      f-3     :     0.002609
 11 H s       :     0.768320  s :     0.768320
      pz      :     0.012469  p :     0.019844
      px      :     0.003581
      py      :     0.003794
 12 H s       :     0.797436  s :     0.797436
      pz      :     0.004930  p :     0.020080
      px      :     0.004294
      py      :     0.010857
 13 H s       :     0.792628  s :     0.792628
      pz      :     0.006469  p :     0.020007
      px      :     0.004648
      py      :     0.008889
 14 H s       :     0.758068  s :     0.758068
      pz      :     0.003755  p :     0.021380
      px      :     0.005885
      py      :     0.011740
 15 H s       :     0.766569  s :     0.766569
      pz      :     0.009755  p :     0.019113
      px      :     0.004480
      py      :     0.004878
 16 H s       :     0.791059  s :     0.791059
      pz      :     0.004110  p :     0.021116
      px      :     0.005895
      py      :     0.011111
 17 H s       :     0.773513  s :     0.773513
      pz      :     0.008321  p :     0.019183
      px      :     0.004802
      py      :     0.006060
 18 H s       :     0.780429  s :     0.780429
      pz      :     0.009116  p :     0.019395
      px      :     0.006604
      py      :     0.003675
 19 H s       :     0.817024  s :     0.817024
      pz      :     0.003930  p :     0.020395
      px      :     0.006738
      py      :     0.009727
 20 H s       :     0.780587  s :     0.780587
      pz      :     0.009129  p :     0.019417
      px      :     0.006856
      py      :     0.003433
 21 H s       :     0.775930  s :     0.775930
      pz      :     0.003816  p :     0.021420
      px      :     0.005865
      py      :     0.011739


                     *******************************
                     * LOEWDIN POPULATION ANALYSIS *
                     *******************************

----------------------
LOEWDIN ATOMIC CHARGES
----------------------
   0 N :    0.277606
   1 C :   -0.203076
   2 C :   -0.074355
   3 C :   -0.228690
   4 O :    0.134689
   5 H :    0.207324
   6 C :   -0.074806
   7 C :   -0.239087
   8 C :   -0.116234
   9 C :   -0.233084
  10 C :   -0.087863
  11 H :    0.142949
  12 H :    0.139169
  13 H :    0.140229
  14 H :    0.170857
  15 H :    0.150298
  16 H :    0.146190
  17 H :    0.148741
  18 H :    0.146551
  19 H :    0.140909
  20 H :    0.146736
  21 H :    0.164948

-------------------------------
LOEWDIN REDUCED ORBITAL CHARGES
-------------------------------
  0 N s       :     2.869531  s :     2.869531
      pz      :     1.148573  p :     3.495916
      px      :     1.150437
      py      :     1.196905
      dz2     :     0.018092  d :     0.334955
      dxz     :     0.038373
      dyz     :     0.068681
      dx2y2   :     0.112864
      dxy     :     0.096946
      f0      :     0.001306  f :     0.021992
      f+1     :     0.001550
      f-1     :     0.001948
      f+2     :     0.002060
      f-2     :     0.003859
      f+3     :     0.002370
      f-3     :     0.008898
  1 C s       :     2.844680  s :     2.844680
      pz      :     1.116192  p :     3.051962
      px      :     0.823013
      py      :     1.112756
      dz2     :     0.046096  d :     0.271675
      dxz     :     0.070174
      dyz     :     0.025016
      dx2y2   :     0.072286
      dxy     :     0.058104
      f0      :     0.005048  f :     0.034759
      f+1     :     0.004903
      f-1     :     0.000734
      f+2     :     0.006601
      f-2     :     0.002805
      f+3     :     0.007754
      f-3     :     0.006914
  2 C s       :     2.767343  s :     2.767343
      pz      :     0.893558  p :     2.834408
      px      :     1.017057
      py      :     0.923794
      dz2     :     0.031935  d :     0.414195
      dxz     :     0.061120
      dyz     :     0.048193
      dx2y2   :     0.121217
      dxy     :     0.151730
      f0      :     0.004698  f :     0.058409
      f+1     :     0.004905
      f-1     :     0.005598
      f+2     :     0.008144
      f-2     :     0.005623
      f+3     :     0.010833
      f-3     :     0.018607
  3 C s       :     2.716204  s :     2.716204
      pz      :     0.836055  p :     2.741936
      px      :     1.012436
      py      :     0.893444
      dz2     :     0.046784  d :     0.675055
      dxz     :     0.079971
      dyz     :     0.135509
      dx2y2   :     0.231754
      dxy     :     0.181037
      f0      :     0.007011  f :     0.095496
      f+1     :     0.005498
      f-1     :     0.008683
      f+2     :     0.012385
      f-2     :     0.012443
      f+3     :     0.015405
      f-3     :     0.034071
  4 O s       :     3.310070  s :     3.310070
      pz      :     1.680052  p :     4.478651
      px      :     1.315191
      py      :     1.483408
      dz2     :     0.008329  d :     0.071660
      dxz     :     0.002833
      dyz     :     0.012037
      dx2y2   :     0.033904
      dxy     :     0.014556
      f0      :     0.000421  f :     0.004931
      f+1     :     0.000669
      f-1     :     0.000552
      f+2     :     0.000297
      f-2     :     0.000354
      f+3     :     0.001520
      f-3     :     0.001117
  5 H s       :     0.639154  s :     0.639154
      pz      :     0.041774  p :     0.153522
      px      :     0.081988
      py      :     0.029759
  6 C s       :     2.721416  s :     2.721416
      pz      :     0.801445  p :     2.810504
      px      :     1.000514
      py      :     1.008546
      dz2     :     0.033172  d :     0.490521
      dxz     :     0.078628
      dyz     :     0.059313
      dx2y2   :     0.154812
      dxy     :     0.164595
      f0      :     0.003825  f :     0.052365
      f+1     :     0.003900
      f-1     :     0.004344
      f+2     :     0.005634
      f-2     :     0.006492
      f+3     :     0.008293
      f-3     :     0.019877
  7 C s       :     2.817797  s :     2.817797
      pz      :     1.075780  p :     3.164981
      px      :     1.001663
      py      :     1.087538
      dz2     :     0.033443  d :     0.232308
      dxz     :     0.053543
      dyz     :     0.030136
      dx2y2   :     0.050881
      dxy     :     0.064305
      f0      :     0.001892  f :     0.024001
      f+1     :     0.003551
      f-1     :     0.002857
      f+2     :     0.003415
      f-2     :     0.002383
      f+3     :     0.004950
      f-3     :     0.004952
  8 C s       :     2.720603  s :     2.720603
      pz      :     0.814015  p :     2.840180
      px      :     1.021481
      py      :     1.004684
      dz2     :     0.032387  d :     0.501424
      dxz     :     0.071984
      dyz     :     0.074125
      dx2y2   :     0.168262
      dxy     :     0.154666
      f0      :     0.003933  f :     0.054027
      f+1     :     0.004398
      f-1     :     0.003994
      f+2     :     0.006804
      f-2     :     0.005996
      f+3     :     0.008525
      f-3     :     0.020376
  9 C s       :     2.819352  s :     2.819352
      pz      :     1.081762  p :     3.156194
      px      :     1.064446
      py      :     1.009985
      dz2     :     0.033531  d :     0.233663
      dxz     :     0.056098
      dyz     :     0.029790
      dx2y2   :     0.045726
      dxy     :     0.068519
      f0      :     0.001799  f :     0.023876
      f+1     :     0.003463
      f-1     :     0.003290
      f+2     :     0.003819
      f-2     :     0.001740
      f+3     :     0.004273
      f-3     :     0.005492
 10 C s       :     2.764399  s :     2.764399
      pz      :     0.890265  p :     2.831168
      px      :     1.019855
      py      :     0.921048
      dz2     :     0.031964  d :     0.434384
      dxz     :     0.066296
      dyz     :     0.044690
      dx2y2   :     0.117802
      dxy     :     0.173634
      f0      :     0.004477  f :     0.057912
      f+1     :     0.004884
      f-1     :     0.005296
      f+2     :     0.006870
      f-2     :     0.006292
      f+3     :     0.010494
      f-3     :     0.019599
 11 H s       :     0.794225  s :     0.794225
      pz      :     0.038025  p :     0.062826
      px      :     0.011298
      py      :     0.013503
 12 H s       :     0.798296  s :     0.798296
      pz      :     0.016952  p :     0.062535
      px      :     0.012009
      py      :     0.033574
 13 H s       :     0.797118  s :     0.797118
      pz      :     0.021463  p :     0.062653
      px      :     0.012950
      py      :     0.028240
 14 H s       :     0.766770  s :     0.766770
      pz      :     0.012962  p :     0.062373
      px      :     0.017887
      py      :     0.031524
 15 H s       :     0.788338  s :     0.788338
      pz      :     0.030702  p :     0.061364
      px      :     0.013591
      py      :     0.017072
 16 H s       :     0.791096  s :     0.791096
      pz      :     0.013286  p :     0.062714
      px      :     0.015987
      py      :     0.033441
 17 H s       :     0.789959  s :     0.789959
      pz      :     0.026696  p :     0.061300
      px      :     0.014265
      py      :     0.020340
 18 H s       :     0.792199  s :     0.792199
      pz      :     0.028870  p :     0.061249
      px      :     0.020291
      py      :     0.012089
 19 H s       :     0.798304  s :     0.798304
      pz      :     0.013165  p :     0.060788
      px      :     0.022420
      py      :     0.025203
 20 H s       :     0.792037  s :     0.792037
      pz      :     0.028636  p :     0.061227
      px      :     0.020939
      py      :     0.011651
 21 H s       :     0.773633  s :     0.773633
      pz      :     0.013254  p :     0.061419
      px      :     0.017177
      py      :     0.030989


                      *****************************
                      * MAYER POPULATION ANALYSIS *
                      *****************************

  NA   - Mulliken gross atomic population
  ZA   - Total nuclear charge
[...]
     50      -0.021239   0.001068  -0.000086  -0.020007  -0.001605  -0.002487
     51       0.213929  -0.000966   0.000258  -0.245274  -0.005964  -0.002043
     52       0.364653  -0.003239   0.000532  -0.417956  -0.010609  -0.001908
     53      -0.501222   0.003394  -0.000720   0.538728   0.013447   0.004096
     54       0.004048   0.351472   0.000127   0.008986  -0.410233  -0.169698
     55      -0.000346  -0.076665  -0.000028  -0.002753   0.089811   0.050127
     56       0.005160   0.513664   0.000195   0.012365  -0.563749  -0.264952
     57      -0.001150  -0.306004  -0.000126   0.000378   0.000834  -0.582111
     58      -0.001942  -0.341151  -0.000110   0.000439   0.000276  -0.668486
     59      -0.000105  -0.025472  -0.000029  -0.000291   0.017381  -0.049870
     60       0.004430   0.368072  -0.000214  -0.010195   0.429305  -0.177081
     61       0.000355  -0.017451   0.000078   0.001238  -0.024725   0.019117
     62      -0.005235  -0.507302   0.000212   0.013316  -0.558123   0.261420
     63      -0.000525   0.002471  -0.005758   0.000031   0.000004   0.009389
     64      -0.000273   0.005404  -0.007118   0.000054   0.000016   0.017330
     65      -0.000013   0.000387  -0.000500   0.000401  -0.000191   0.001135
                 60         61         62         63         64         65    
      0       0.000680  -0.000065   0.000100  -0.000945   0.001378  -0.000113
      1       0.000045  -0.000073  -0.000361   0.001593   0.001406  -0.000047
      2      -0.000169   0.000000  -0.000037   0.000113   0.000065  -0.000006
      3      -0.013858   0.000032   0.000476  -0.000597   0.000990  -0.000058
      4      -0.003994   0.000153  -0.095173  -0.006423  -0.002321  -0.000010
      5       0.093273  -0.000001  -0.004120   0.000752  -0.001941  -0.000004
      6       0.001078   0.000294  -0.002017   0.014318   0.048791   0.001106
      7      -0.001327  -0.000264   0.003121  -0.017489  -0.070652   0.000415
      8      -0.000097  -0.000007   0.000296  -0.000635  -0.002904   0.000064
      9      -0.000003   0.000459   0.000353  -0.001994  -0.004402  -0.001948
     10      -0.000017   0.000233   0.000060   0.000119   0.000256   0.000171
     11      -0.000014   0.000041   0.000085  -0.000038  -0.000057  -0.000028
     12       0.000025   0.000042  -0.000016   0.000145   0.000447  -0.062228
     13      -0.000006  -0.000071   0.000008   0.000115  -0.000240  -0.000449
     14      -0.000001  -0.000011  -0.000003   0.000004   0.000001  -0.001536
     15      -0.000082  -0.001396  -0.000092   0.001317  -0.001294   0.997698
     16       0.000040  -0.002344  -0.000089   0.000781   0.001995  -0.011075
     17       0.000007  -0.000169   0.000009   0.000079   0.000120   0.023143
     18      -0.000031   0.001014  -0.000020   0.000315  -0.000254   0.000405
     19      -0.000016   0.000235   0.000064   0.000144  -0.000328   0.000836
     20      -0.000025   0.000044   0.000000   0.000015  -0.000026   0.000065
     21       0.000003  -0.025745  -0.000051   0.000130   0.000061   0.000374
     22       0.000008   0.085154   0.000210  -0.000586  -0.000168   0.000041
     23       0.000014   0.006937   0.000037  -0.000034  -0.000011  -0.000005
     24       0.000000  -0.000447  -0.000359   0.004130  -0.000318  -0.000368
     25       0.000057   0.000187   0.000108   0.000017   0.000361  -0.000285
     26       0.000022  -0.000018  -0.000076   0.000056   0.000026  -0.000025
     27       0.000028  -0.002570   0.000022  -0.001331   0.000166   0.000038
     28       0.000053  -0.000903   0.000030  -0.001213   0.000299   0.000026
     29       0.000051  -0.000807  -0.000003  -0.000092   0.000017  -0.000001
     30       0.001033  -0.000187   0.002887  -0.047433   0.011782   0.000316
     31       0.001377  -0.000356   0.004411  -0.070362   0.020822   0.000180
     32       0.000133  -0.000021   0.000137  -0.004948   0.001400   0.000016
     33      -0.185700  -0.000047  -0.013248  -0.000973   0.000228  -0.000038
     34       0.080893   0.000014  -0.010347  -0.000557  -0.001596  -0.000034
     35      -0.676438   0.000106  -0.051660  -0.007317   0.006999  -0.000036
     36       0.139278  -0.000485   0.239243   0.019868  -0.000588  -0.000015
     37       0.387443  -0.001299   0.651387   0.051918   0.003937   0.000052
     38      -0.140406   0.000539  -0.268339  -0.020406  -0.001646   0.000019
     39       0.196566   0.000319  -0.234529  -0.010876  -0.013712  -0.000057
     40      -0.421853  -0.000745   0.487871   0.025753   0.024822  -0.000058
     41      -0.293333  -0.000542   0.368965   0.018823   0.017800   0.000031
     42      -0.009832  -0.002131   0.024651  -0.147075  -0.543469  -0.000544
     43       0.014666   0.003342  -0.033770   0.214453   0.791347   0.000825
     44       0.001286   0.000127  -0.001878   0.008735   0.032691   0.000040
     45       0.000023  -0.057990  -0.000128   0.000200   0.000478  -0.001976
     46      -0.000057  -0.063230  -0.000158   0.000549  -0.000040   0.001661
     47      -0.000138  -0.160483  -0.000428   0.001129   0.000398  -0.004416
     48       0.000069   0.408078   0.000861  -0.002373  -0.000882  -0.001050
     49      -0.000183  -0.866850  -0.001909   0.005077   0.002209  -0.000536
     50      -0.000012  -0.069963  -0.000173   0.000402   0.000155   0.000043
     51      -0.000126  -0.065724  -0.000129   0.000255   0.000576  -0.002322
     52      -0.000017  -0.093397  -0.000209   0.000836   0.000084   0.001126
     53      -0.000008   0.146865   0.000321  -0.001137  -0.000462   0.004740
     54      -0.000177   0.014476   0.000148   0.001181   0.000389   0.000068
     55       0.000008  -0.002140  -0.000047   0.000448  -0.000074   0.000195
     56      -0.000244   0.019094   0.000154   0.002381   0.000277  -0.000173
     57      -0.000563   0.017147  -0.000301   0.011723  -0.002769  -0.000265
     58      -0.000667   0.018321  -0.000430   0.015855  -0.003867   0.000132
     59      -0.000029   0.001338  -0.000058   0.001165  -0.000295  -0.000003
     60       0.000067   0.008900   0.000025   0.001265   0.000414   0.000060
     61       0.000026   0.000423  -0.000004   0.000718  -0.000046   0.000163
     62      -0.000147  -0.010501  -0.000019  -0.002266  -0.000318   0.000194
     63      -0.009366   0.002608  -0.033007   0.523139  -0.142625  -0.000710
     64      -0.014852   0.003897  -0.048701   0.801629  -0.218083  -0.001046
     65      -0.000588   0.000279  -0.002909   0.055438  -0.014987  -0.000081


-----------
IR SPECTRUM
-----------

 Mode   freq       eps      Int      T**2         TX        TY        TZ
       cm**-1   L/(mol*cm) km/mol    a.u.
----------------------------------------------------------------------------
  7:     97.93   0.000001    0.01  0.000005  (-0.001485  0.001345 -0.000704)
  8:    135.75   0.001009    5.10  0.002321  ( 0.000653  0.004584 -0.047950)
  9:    188.18   0.000042    0.21  0.000070  ( 0.001412 -0.000125 -0.008225)
 10:    204.24   0.000165    0.83  0.000252  ( 0.001258 -0.001416  0.015767)
 11:    247.18   0.000162    0.82  0.000205  (-0.000572 -0.000799  0.014269)
 12:    289.29   0.012453   62.93  0.013433  (-0.004668 -0.008389  0.115503)
 13:    303.65   0.000055    0.28  0.000056  ( 0.001844 -0.005882 -0.004294)
 14:    332.30   0.001304    6.59  0.001225  (-0.015537 -0.031158  0.003547)
 15:    339.46   0.000122    0.62  0.000113  (-0.001190 -0.002323 -0.010285)
 16:    355.88   0.008407   42.48  0.007372  ( 0.001278 -0.002864  0.085801)
 17:    460.45   0.000256    1.30  0.000174  ( 0.008959 -0.009612 -0.001080)
 18:    542.25   0.000687    3.47  0.000396  (-0.010829 -0.016613  0.001530)
 19:    544.09   0.000155    0.78  0.000089  ( 0.002908  0.005787  0.006841)
 20:    585.55   0.002109   10.66  0.001124  ( 0.018189  0.028127  0.001377)
 21:    601.37   0.000667    3.37  0.000346  ( 0.010887  0.006149 -0.013786)
 22:    608.63   0.000766    3.87  0.000393  ( 0.009330  0.006843  0.016091)
 23:    732.32   0.000871    4.40  0.000371  (-0.001532 -0.001634  0.019131)
 24:    775.01   0.000747    3.77  0.000301  (-0.009076  0.014764 -0.000534)
 25:    902.78   0.001248    6.31  0.000431  (-0.000308  0.001023 -0.020740)
 26:    926.41   0.003455   17.46  0.001164  ( 0.000157 -0.002521  0.034023)
 27:    958.55   0.000207    1.04  0.000067  ( 0.005859 -0.005739  0.000211)
 28:   1029.25   0.000752    3.80  0.000228  (-0.002626  0.014857 -0.000496)
 29:   1042.35   0.000839    4.24  0.000251  (-0.006456  0.006720 -0.012825)
 30:   1043.80   0.001702    8.60  0.000509  ( 0.014602 -0.015756 -0.006892)
 31:   1071.56   0.000068    0.34  0.000020  ( 0.000186 -0.000082  0.004431)
 32:   1126.27   0.000040    0.20  0.000011  ( 0.001777  0.002799  0.000336)
 33:   1152.79   0.001320    6.67  0.000357  ( 0.003520 -0.018496  0.001707)
 34:   1154.95   0.004511   22.80  0.001219  ( 0.021306  0.027354  0.004097)
 35:   1174.95   0.021440  108.35  0.005695  (-0.030507 -0.068789 -0.005644)
 36:   1229.30   0.017171   86.77  0.004359  (-0.019105  0.063028  0.004622)
 37:   1271.11   0.009683   48.94  0.002377  (-0.017971 -0.045252 -0.002572)
 38:   1325.76   0.001728    8.73  0.000407  ( 0.004800  0.019538  0.001445)
 39:   1362.21   0.003428   17.33  0.000785  ( 0.027693  0.004108  0.001292)
 40:   1396.89   0.014125   71.38  0.003155  (-0.049665 -0.026117 -0.002603)
 41:   1421.67   0.000180    0.91  0.000040  ( 0.000445 -0.006237  0.000717)
 42:   1426.20   0.001929    9.75  0.000422  (-0.020481  0.001600 -0.000251)
 43:   1458.79   0.001295    6.54  0.000277  (-0.010659 -0.012037 -0.004302)
 44:   1476.52   0.004406   22.26  0.000931  (-0.000330 -0.001509  0.030475)
 45:   1477.78   0.000257    1.30  0.000054  ( 0.004547  0.004348  0.003841)
 46:   1488.71   0.000639    3.23  0.000134  ( 0.010620 -0.001117 -0.004468)
 47:   1497.94   0.002883   14.57  0.000601  ( 0.005000  0.003780 -0.023694)
 48:   1498.52   0.000371    1.87  0.000077  ( 0.002959  0.006880  0.004594)
 49:   1501.31   0.002161   10.92  0.000449  (-0.008293 -0.018878  0.004896)
 50:   1550.74   0.031542  159.40  0.006347  (-0.037978 -0.069640 -0.007438)
 51:   1560.88   0.005772   29.17  0.001154  (-0.004524  0.033667  0.000351)
 52:   1658.22   0.013231   66.86  0.002490  ( 0.010188  0.048711  0.003660)
 53:   1707.77   0.003600   18.19  0.000658  ( 0.023266 -0.010779 -0.000535)
 54:   3060.52   0.000231    1.17  0.000024  ( 0.004699 -0.001203 -0.000017)
 55:   3082.67   0.000007    0.04  0.000001  ( 0.000415  0.000731 -0.000058)
 56:   3106.02   0.000106    0.53  0.000011  (-0.003183 -0.000325  0.000629)
 57:   3120.24   0.000003    0.02  0.000000  (-0.000013  0.000117  0.000566)
 58:   3152.77   0.000010    0.05  0.000001  (-0.000004 -0.000161  0.000961)
 59:   3181.15   0.000439    2.22  0.000043  ( 0.001881  0.006252  0.000673)
 60:   3197.49   0.000135    0.68  0.000013  (-0.001871 -0.000209 -0.003107)
 61:   3205.52   0.000168    0.85  0.000016  (-0.003903 -0.001056 -0.000076)
 62:   3217.90   0.000018    0.09  0.000002  (-0.000572  0.001201  0.000140)
 63:   3255.51   0.001727    8.73  0.000166  ( 0.002738  0.012551  0.000725)
 64:   3260.65   0.002946   14.89  0.000282  (-0.013086  0.010515  0.000286)
 65:   3851.02   0.030000  151.61  0.002431  ( 0.044853  0.020334  0.002390)

* The epsilon (eps) is given for a Dirac delta lineshape.
** The dipole moment derivative (T) already includes vibrational overlap.

The first frequency considered to be a vibration is 7
The total number of vibrations considered is 59


--------------------------
THERMOCHEMISTRY AT 298.15K
--------------------------

Temperature         ... 298.15 K
Pressure            ... 1.00 atm
Total Mass          ... 138.19 AMU

Throughout the following assumptions are being made:
  (1) The electronic state is orbitally nondegenerate
  (2) There are no thermally accessible electronically excited states
  (3) Hindered rotations indicated by low frequency modes are not
      treated as such but are treated as vibrations and this may
      cause some error
  (4) All equations used are the standard statistical mechanics
      equations for an ideal gas
  (5) All vibrations are strictly harmonic

freq.      97.93  E(vib)   ...       0.46 
freq.     135.75  E(vib)   ...       0.42 
freq.     188.18  E(vib)   ...       0.36 
freq.     204.24  E(vib)   ...       0.35 
freq.     247.18  E(vib)   ...       0.31 
freq.     289.29  E(vib)   ...       0.27 
freq.     303.65  E(vib)   ...       0.26 
freq.     332.30  E(vib)   ...       0.24 
freq.     339.46  E(vib)   ...       0.23 
freq.     355.88  E(vib)   ...       0.22 
freq.     460.45  E(vib)   ...       0.16 
freq.     542.25  E(vib)   ...       0.12 
freq.     544.09  E(vib)   ...       0.12 
freq.     585.55  E(vib)   ...       0.11 
freq.     601.37  E(vib)   ...       0.10 
freq.     608.63  E(vib)   ...       0.10 
freq.     732.32  E(vib)   ...       0.06 
freq.     775.01  E(vib)   ...       0.05 
freq.     902.78  E(vib)   ...       0.03 
freq.     926.41  E(vib)   ...       0.03 
freq.     958.55  E(vib)   ...       0.03 
freq.    1029.25  E(vib)   ...       0.02 
freq.    1042.35  E(vib)   ...       0.02 
freq.    1043.80  E(vib)   ...       0.02 
freq.    1071.56  E(vib)   ...       0.02 
freq.    1126.27  E(vib)   ...       0.01 
freq.    1152.79  E(vib)   ...       0.01 
freq.    1154.95  E(vib)   ...       0.01 
freq.    1174.95  E(vib)   ...       0.01 
freq.    1229.30  E(vib)   ...       0.01 
freq.    1271.11  E(vib)   ...       0.01 
freq.    1325.76  E(vib)   ...       0.01 
freq.    1362.21  E(vib)   ...       0.01 
freq.    1396.89  E(vib)   ...       0.00 
freq.    1421.67  E(vib)   ...       0.00 
freq.    1426.20  E(vib)   ...       0.00 
freq.    1458.79  E(vib)   ...       0.00 
freq.    1476.52  E(vib)   ...       0.00 
freq.    1477.78  E(vib)   ...       0.00 
freq.    1488.71  E(vib)   ...       0.00 
freq.    1497.94  E(vib)   ...       0.00 
freq.    1498.52  E(vib)   ...       0.00 
freq.    1501.31  E(vib)   ...       0.00 
freq.    1550.74  E(vib)   ...       0.00 
freq.    1560.88  E(vib)   ...       0.00 
freq.    1658.22  E(vib)   ...       0.00 
freq.    1707.77  E(vib)   ...       0.00 
freq.    3060.52  E(vib)   ...       0.00 
freq.    3082.67  E(vib)   ...       0.00 
freq.    3106.02  E(vib)   ...       0.00 
freq.    3120.24  E(vib)   ...       0.00 
freq.    3152.77  E(vib)   ...       0.00 
freq.    3181.15  E(vib)   ...       0.00 
freq.    3197.49  E(vib)   ...       0.00 
freq.    3205.52  E(vib)   ...       0.00 
freq.    3217.90  E(vib)   ...       0.00 
freq.    3255.51  E(vib)   ...       0.00 
freq.    3260.65  E(vib)   ...       0.00 
freq.    3851.02  E(vib)   ...       0.00 

------------
INNER ENERGY
------------

The inner energy is: U= E(el) + E(ZPE) + E(vib) + E(rot) + E(trans)
    E(el)   - is the total energy from the electronic structure calculation
              = E(kin-el) + E(nuc-el) + E(el-el) + E(nuc-nuc)
    E(ZPE)  - the the zero temperature vibrational energy from the frequency calculation
    E(vib)  - the the finite temperature correction to E(ZPE) due to population
              of excited vibrational states
    E(rot)  - is the rotational thermal energy
    E(trans)- is the translational thermal energy

Summary of contributions to the inner energy U:
Electronic energy                ...   -441.80465691 Eh
Zero point energy                ...      0.19120423 Eh     119.98 kcal/mol
Thermal vibrational correction   ...      0.00676819 Eh       4.25 kcal/mol
Thermal rotational correction    ...      0.00141627 Eh       0.89 kcal/mol
Thermal translational correction ...      0.00141627 Eh       0.89 kcal/mol
-----------------------------------------------------------------------
Total thermal energy                   -441.60385195 Eh


Summary of corrections to the electronic energy:
(perhaps to be used in another calculation)
Total thermal correction                  0.00960073 Eh       6.02 kcal/mol
Non-thermal (ZPE) correction              0.19120423 Eh     119.98 kcal/mol
-----------------------------------------------------------------------
Total correction                          0.20080496 Eh     126.01 kcal/mol


--------
ENTHALPY
--------

The enthalpy is H = U + kB*T
                kB is Boltzmann's constant
Total free energy                 ...   -441.60385195 Eh 
Thermal Enthalpy correction       ...      0.00094421 Eh       0.59 kcal/mol
-----------------------------------------------------------------------
Total Enthalpy                    ...   -441.60290774 Eh


Note: Only C1 symmetry has been detected, increase convergence thresholds 
      if your molecule has a higher symmetry. Symmetry factor of 1.0 is   
      used for the rotational entropy correction. 
 

Note: Rotational entropy computed according to Herzberg 
Infrared and Raman Spectra, Chapter V,1, Van Nostrand Reinhold, 1945 
Point Group:  C1, Symmetry Number:   1  
Rotational constants in cm-1:     0.059078     0.043147     0.025293 

Vibrational entropy computed according to the QRRHO of S. Grimme
Chem.Eur.J. 2012 18 9955


-------
ENTROPY
-------

The entropy contributions are T*S = T*(S(el)+S(vib)+S(rot)+S(trans))
     S(el)   - electronic entropy
     S(vib)  - vibrational entropy
     S(rot)  - rotational entropy
     S(trans)- translational entropy
The entropies will be listed as multiplied by the temperature to get
units of energy

Electronic entropy                ...      0.00000000 Eh      0.00 kcal/mol
Vibrational entropy               ...      0.01115126 Eh      7.00 kcal/mol
Rotational entropy                ...      0.01406614 Eh      8.83 kcal/mol
Translational entropy             ...      0.01932935 Eh     12.13 kcal/mol
-----------------------------------------------------------------------
Final entropy term                ...      0.04454675 Eh     27.95 kcal/mol

In case the symmetry of your molecule has not been determined correctly
or in case you have a reason to use a different symmetry number we print 
out the resulting rotational entropy values for sn=1,12 :
 --------------------------------------------------------
|  sn= 1 | S(rot)=       0.01406614 Eh      8.83 kcal/mol|
|  sn= 2 | S(rot)=       0.01341168 Eh      8.42 kcal/mol|
|  sn= 3 | S(rot)=       0.01302885 Eh      8.18 kcal/mol|
|  sn= 4 | S(rot)=       0.01275723 Eh      8.01 kcal/mol|
|  sn= 5 | S(rot)=       0.01254654 Eh      7.87 kcal/mol|
|  sn= 6 | S(rot)=       0.01237440 Eh      7.77 kcal/mol|
|  sn= 7 | S(rot)=       0.01222885 Eh      7.67 kcal/mol|
|  sn= 8 | S(rot)=       0.01210277 Eh      7.59 kcal/mol|
|  sn= 9 | S(rot)=       0.01199156 Eh      7.52 kcal/mol|
|  sn=10 | S(rot)=       0.01189208 Eh      7.46 kcal/mol|
|  sn=11 | S(rot)=       0.01180209 Eh      7.41 kcal/mol|
|  sn=12 | S(rot)=       0.01171994 Eh      7.35 kcal/mol|
 --------------------------------------------------------


-------------------
GIBBS FREE ENERGY
-------------------

The Gibbs free energy is G = H - T*S

Total enthalpy                    ...   -441.60290774 Eh 
Total entropy correction          ...     -0.04454675 Eh    -27.95 kcal/mol
-----------------------------------------------------------------------
Final Gibbs free energy         ...   -441.64745449 Eh

For completeness - the Gibbs free energy minus the electronic energy
G-E(el)                           ...      0.15720242 Eh     98.65 kcal/mol


Timings for individual modules:

Sum of individual times         ...      670.868 sec (=  11.181 min)
GTO integral calculation        ...       17.072 sec (=   0.285 min)   2.5 %
SCF iterations                  ...      190.140 sec (=   3.169 min)  28.3 %
SCF Gradient evaluation         ...       48.356 sec (=   0.806 min)   7.2 %
Geometry relaxation             ...        1.445 sec (=   0.024 min)   0.2 %
Analytical frequency calculation...      413.855 sec (=   6.898 min)  61.7 %
                             ****ORCA TERMINATED NORMALLY****
TOTAL RUN TIME: 0 days 0 hours 11 minutes 36 seconds 141 msec
