
                                 *****************
                                 * O   R   C   A *
                                 *****************

                                            #,                                       
                                            ###                                      
                                            ####                                     
                                            #####                                    
                                            ######                                   
                                           ########,                                 
                                     ,,################,,,,,                         
                               ,,#################################,,                 
                          ,,##########################################,,             
                       ,#########################################, ''#####,          
                    ,#############################################,,   '####,        
                  ,##################################################,,,,####,       
                ,###########''''           ''''###############################       
              ,#####''   ,,,,##########,,,,          '''####'''          '####       
            ,##' ,,,,###########################,,,                        '##       
           ' ,,###''''                  '''############,,,                           
         ,,##''                                '''############,,,,        ,,,,,,###''
      ,#''                                            '''#######################'''  
     '                                                          ''''####''''         
             ,#######,   #######,   ,#######,      ##                                
            ,#'     '#,  ##    ##  ,#'     '#,    #''#        ######   ,####,        
            ##       ##  ##   ,#'  ##            #'  '#       #        #'  '#        
            ##       ##  #######   ##           ,######,      #####,   #    #        
            '#,     ,#'  ##    ##  '#,     ,#' ,#      #,         ##   #,  ,#        
             '#######'   ##     ##  '#######'  #'      '#     #####' # '####'        



                  #######################################################
                  #                        -***-                        #
                  #          Department of theory and spectroscopy      #
                  #    Directorship and core code : Frank Neese         #
                  #        Max Planck Institute fuer Kohlenforschung    #
                  #                Kaiser Wilhelm Platz 1               #
                  #                 D-45470 Muelheim/Ruhr               #
                  #                      Germany                        #
                  #                                                     #
                  #                  All rights reserved                #
                  #                        -***-                        #
                  #######################################################


                         Program Version 5.0.4 -  RELEASE  -


 With contributions from (in alphabetic order):
   Daniel Aravena         : Magnetic Suceptibility
   Michael Atanasov       : Ab Initio Ligand Field Theory (pilot matlab implementation)
   Alexander A. Auer      : GIAO ZORA, VPT2 properties, NMR spectrum
   Ute Becker             : Parallelization
   Giovanni Bistoni       : ED, misc. LED, open-shell LED, HFLD
   Martin Brehm           : Molecular dynamics
   Dmytro Bykov           : SCF Hessian
   Vijay G. Chilkuri      : MRCI spin determinant printing, contributions to CSF-ICE
   Dipayan Datta          : RHF DLPNO-CCSD density
   Achintya Kumar Dutta   : EOM-CC, STEOM-CC
   Dmitry Ganyushin       : Spin-Orbit,Spin-Spin,Magnetic field MRCI
   Miquel Garcia          : C-PCM and meta-GGA Hessian, CC/C-PCM, Gaussian charge scheme
   Yang Guo               : DLPNO-NEVPT2, F12-NEVPT2, CIM, IAO-localization
   Andreas Hansen         : Spin unrestricted coupled pair/coupled cluster methods
   Benjamin Helmich-Paris : MC-RPA, TRAH-SCF, COSX integrals
   Lee Huntington         : MR-EOM, pCC
   Robert Izsak           : Overlap fitted RIJCOSX, COSX-SCS-MP3, EOM
   Marcus Kettner         : VPT2
   Christian Kollmar      : KDIIS, OOCD, Brueckner-CCSD(T), CCSD density, CASPT2, CASPT2-K
   Simone Kossmann        : Meta GGA functionals, TD-DFT gradient, OOMP2, MP2 Hessian
   Martin Krupicka        : Initial AUTO-CI
   Lucas Lang             : DCDCAS
   Marvin Lechner         : AUTO-CI (C++ implementation), FIC-MRCC
   Dagmar Lenk            : GEPOL surface, SMD
   Dimitrios Liakos       : Extrapolation schemes; Compound Job, initial MDCI parallelization
   Dimitrios Manganas     : Further ROCIS development; embedding schemes
   Dimitrios Pantazis     : SARC Basis sets
   Anastasios Papadopoulos: AUTO-CI, single reference methods and gradients
   Taras Petrenko         : DFT Hessian,TD-DFT gradient, ASA, ECA, R-Raman, ABS, FL, XAS/XES, NRVS
   Peter Pinski           : DLPNO-MP2, DLPNO-MP2 Gradient
   Christoph Reimann      : Effective Core Potentials
   Marius Retegan         : Local ZFS, SOC
   Christoph Riplinger    : Optimizer, TS searches, QM/MM, DLPNO-CCSD(T), (RO)-DLPNO pert. Triples
   Tobias Risthaus        : Range-separated hybrids, TD-DFT gradient, RPA, STAB
   Michael Roemelt        : Original ROCIS implementation
   Masaaki Saitow         : Open-shell DLPNO-CCSD energy and density
   Barbara Sandhoefer     : DKH picture change effects
   Avijit Sen             : IP-ROCIS
   Kantharuban Sivalingam : CASSCF convergence, NEVPT2, FIC-MRCI
   Bernardo de Souza      : ESD, SOC TD-DFT
   Georgi Stoychev        : AutoAux, RI-MP2 NMR, DLPNO-MP2 response
   Willem Van den Heuvel  : Paramagnetic NMR
   Boris Wezisla          : Elementary symmetry handling
   Frank Wennmohs         : Technical directorship


 We gratefully acknowledge several colleagues who have allowed us to
 interface, adapt or use parts of their codes:
   Stefan Grimme, W. Hujo, H. Kruse, P. Pracht,  : VdW corrections, initial TS optimization,
                  C. Bannwarth, S. Ehlert          DFT functionals, gCP, sTDA/sTD-DF
   Ed Valeev, F. Pavosevic, A. Kumar             : LibInt (2-el integral package), F12 methods
   Garnet Chan, S. Sharma, J. Yang, R. Olivares  : DMRG
   Ulf Ekstrom                                   : XCFun DFT Library
   Mihaly Kallay                                 : mrcc  (arbitrary order and MRCC methods)
   Jiri Pittner, Ondrej Demel                    : Mk-CCSD
   Frank Weinhold                                : gennbo (NPA and NBO analysis)
   Christopher J. Cramer and Donald G. Truhlar   : smd solvation model
   Lars Goerigk                                  : TD-DFT with DH, B97 family of functionals
   V. Asgeirsson, H. Jonsson                     : NEB implementation
   FAccTs GmbH                                   : IRC, NEB, NEB-TS, DLPNO-Multilevel, CI-OPT
                                                   MM, QMMM, 2- and 3-layer-ONIOM, Crystal-QMMM,
                                                   LR-CPCM, SF, NACMEs, symmetry and pop. for TD-DFT,
                                                   nearIR, NL-DFT gradient (VV10), updates on ESD,
                                                   ML-optimized integration grids
   S Lehtola, MJT Oliveira, MAL Marques          : LibXC Library
   Liviu Ungur et al                             : ANISO software


 Your calculation uses the libint2 library for the computation of 2-el integrals
 For citations please refer to: http://libint.valeyev.net

 Your ORCA version has been built with support for libXC version: 5.1.0
 For citations please refer to: https://tddft.org/programs/libxc/

 This ORCA versions uses:
   CBLAS   interface :  Fast vector & matrix operations
   LAPACKE interface :  Fast linear algebra routines
   SCALAPACK package :  Parallel linear algebra routines
   Shared memory     :  Shared parallel matrices
   BLAS/LAPACK       :  OpenBLAS 0.3.15  USE64BITINT DYNAMIC_ARCH NO_AFFINITY SkylakeX SINGLE_THREADED
        Core in use  :  SkylakeX
   Copyright (c) 2011-2014, The OpenBLAS Project




***************************************
The coordinates will be read from file: model.xyz
***************************************


================================================================================

----- Orbital basis set information -----
Your calculation utilizes the basis: EPR-II
   V. Barone, in Recent Advances in Density Functional Methods, Part 1 (ed. D. P. Chong), World Scientific, Singapore, 1995, p. 287.

----- AuxJ basis set information -----
Your calculation utilizes the auxiliary basis: def2/J
   F. Weigend, Phys. Chem. Chem. Phys. 8, 1057 (2006).

================================================================================
                                        WARNINGS
                       Please study these warnings very carefully!
================================================================================

WARNING: Old DensityContainer found on disk!
         Will remove this file - 
         If you want to keep old densities, please start your calculation with a different basename. 


WARNING: Geometry Optimization
  ===> : Switching off AutoStart
         For restart on a previous wavefunction, please use MOREAD

INFO   : the flag for use of the SHARK integral package has been found!

================================================================================
                                       INPUT FILE
================================================================================
NAME = opt_EPRII.inp
|  1> ! B3LYP EPR-II OPT
|  2> %pal nprocs 16 end
|  3> *XYZFile 1 1 model.xyz
|  4> 
|  5>                          ****END OF INPUT****
================================================================================

                       *****************************
                       * Geometry Optimization Run *
                       *****************************

Geometry optimization settings:
Update method            Update   .... BFGS
Choice of coordinates    CoordSys .... Z-matrix Internals
Initial Hessian          InHess   .... Almoef's Model

Convergence Tolerances:
Energy Change            TolE     ....  5.0000e-06 Eh
Max. Gradient            TolMAXG  ....  3.0000e-04 Eh/bohr
RMS Gradient             TolRMSG  ....  1.0000e-04 Eh/bohr
Max. Displacement        TolMAXD  ....  4.0000e-03 bohr
RMS Displacement         TolRMSD  ....  2.0000e-03 bohr
Strict Convergence                ....  False
------------------------------------------------------------------------------
                        ORCA OPTIMIZATION COORDINATE SETUP
------------------------------------------------------------------------------

The optimization will be done in new redundant internal coordinates
Making redundant internal coordinates   ...  (new redundants) done
Evaluating the initial hessian          ...  (Almloef) done
Evaluating the coordinates              ...  done
Calculating the B-matrix                .... done
Calculating the G-matrix                .... done
Diagonalizing the G-matrix              .... done
The first mode is                       ....   43
The number of degrees of freedom        ....   60

    -----------------------------------------------------------------
                    Redundant Internal Coordinates


    -----------------------------------------------------------------
         Definition                    Initial Value    Approx d2E/dq
    -----------------------------------------------------------------
      1. B(C   1,N   0)                  1.4651         0.424713   
      2. B(C   2,N   0)                  1.3181         0.728747   
      3. B(C   3,C   2)                  1.3875         0.630638   
      4. B(O   4,C   3)                  1.3591         0.626931   
      5. B(H   5,O   4)                  0.9670         0.506821   
      6. B(C   6,C   3)                  1.3910         0.622407   
      7. B(C   7,C   6)                  1.5069         0.406605   
      8. B(C   8,C   6)                  1.3857         0.634744   
      9. B(C   9,C   8)                  1.5070         0.406447   
     10. B(C  10,C   8)                  1.3821         0.643106   
     11. B(C  10,N   0)                  1.3188         0.726950   
     12. B(H  11,C   1)                  1.0900         0.360066   
     13. B(H  12,C   1)                  1.0900         0.360131   
     14. B(H  13,C   1)                  1.0900         0.360164   
     15. B(H  14,C   2)                  1.0800         0.373612   
     16. B(H  15,C   7)                  1.0900         0.360045   
     17. B(H  16,C   7)                  1.0900         0.360152   
     18. B(H  17,C   7)                  1.0900         0.360092   
     19. B(H  18,C   9)                  1.0900         0.360089   
     20. B(H  19,C   9)                  1.0899         0.360177   
     21. B(H  20,C   9)                  1.0900         0.360125   
     22. B(H  21,C  10)                  1.0800         0.373533   
     23. A(C   1,N   0,C   2)          119.1080         0.412165   
     24. A(C   1,N   0,C  10)          119.1087         0.411985   
     25. A(C   2,N   0,C  10)          121.7828         0.453967   
     26. A(H  12,C   1,H  13)          109.4750         0.290851   
     27. A(N   0,C   1,H  11)          109.4642         0.329254   
     28. A(H  11,C   1,H  13)          109.4750         0.290843   
     29. A(N   0,C   1,H  13)          109.4709         0.329268   
     30. A(N   0,C   1,H  12)          109.4714         0.329264   
     31. A(H  11,C   1,H  12)          109.4708         0.290839   
     32. A(C   3,C   2,H  14)          119.6612         0.356145   
     33. A(N   0,C   2,H  14)          119.6587         0.362761   
     34. A(N   0,C   2,C   3)          120.6801         0.445346   
     35. A(C   2,C   3,O   4)          120.4750         0.433413   
     36. A(C   2,C   3,C   6)          119.0530         0.435701   
     37. A(O   4,C   3,C   6)          120.4720         0.432390   
     38. A(C   3,O   4,H   5)          114.0067         0.369197   
     39. A(C   3,C   6,C   7)          120.8119         0.402916   
     40. A(C   7,C   6,C   8)          120.8166         0.404314   
     41. A(C   3,C   6,C   8)          118.3715         0.436211   
     42. A(H  15,C   7,H  17)          109.4724         0.290831   
     43. A(H  15,C   7,H  16)          109.4663         0.290839   
     44. A(C   6,C   7,H  16)          109.4703         0.328883   
     45. A(C   6,C   7,H  15)          109.4745         0.328867   
     46. A(C   6,C   7,H  17)          109.4758         0.328874   
     47. A(H  16,C   7,H  17)          109.4681         0.290845   
     48. A(C   9,C   8,C  10)          120.3840         0.405221   
     49. A(C   6,C   8,C  10)          119.2267         0.438791   
     50. A(C   6,C   8,C   9)          120.3888         0.404286   
     51. A(C   8,C   9,H  19)          109.4721         0.328865   
     52. A(C   8,C   9,H  18)          109.4693         0.328852   
     53. A(H  19,C   9,H  20)          109.4760         0.290852   
     54. A(H  18,C   9,H  20)          109.4691         0.290841   
     55. A(C   8,C   9,H  20)          109.4678         0.328858   
     56. A(H  18,C   9,H  19)          109.4731         0.290848   
     57. A(N   0,C  10,C   8)          120.8842         0.446728   
     58. A(C   8,C  10,H  21)          119.5582         0.357319   
     59. A(N   0,C  10,H  21)          119.5561         0.362595   
     60. D(H  13,C   1,N   0,C  10)    149.7279         0.015379   
     61. D(H  11,C   1,N   0,C  10)    -90.2720         0.015379   
     62. D(H  13,C   1,N   0,C   2)    -29.9962         0.015379   
     63. D(H  11,C   1,N   0,C   2)     90.0039         0.015379   
     64. D(H  12,C   1,N   0,C  10)     29.7233         0.015379   
     65. D(H  12,C   1,N   0,C   2)   -150.0008         0.015379   
     66. D(C   3,C   2,N   0,C  10)      0.2798         0.044316   
     67. D(H  14,C   2,N   0,C  10)   -179.7399         0.044316   
     68. D(C   3,C   2,N   0,C   1)    179.9962         0.044316   
     69. D(H  14,C   2,N   0,C   1)     -0.0235         0.044316   
     70. D(C   6,C   3,C   2,H  14)    179.9961         0.027579   
     71. D(O   4,C   3,C   2,H  14)      0.0227         0.027579   
     72. D(C   6,C   3,C   2,N   0)     -0.0236         0.027579   
     73. D(O   4,C   3,C   2,N   0)   -179.9970         0.027579   
     74. D(H   5,O   4,C   3,C   2)     90.0004         0.028884   
     75. D(H   5,O   4,C   3,C   6)    -89.9726         0.028884   
     76. D(C   8,C   6,C   3,O   4)    179.9778         0.026819   
     77. D(C   8,C   6,C   3,C   2)      0.0044         0.026819   
     78. D(C   7,C   6,C   3,O   4)     -0.0054         0.026819   
     79. D(C   7,C   6,C   3,C   2)   -179.9788         0.026819   
     80. D(H  17,C   7,C   6,C   8)    150.0170         0.012253   
     81. D(H  17,C   7,C   6,C   3)    -30.0002         0.012253   
     82. D(H  16,C   7,C   6,C   8)     30.0186         0.012253   
     83. D(H  16,C   7,C   6,C   3)   -149.9986         0.012253   
     84. D(H  15,C   7,C   6,C   8)    -89.9768         0.012253   
     85. D(H  15,C   7,C   6,C   3)     90.0059         0.012253   
     86. D(C  10,C   8,C   6,C   7)    179.7596         0.027962   
     87. D(C  10,C   8,C   6,C   3)     -0.2236         0.027962   
     88. D(C   9,C   8,C   6,C   7)      0.0030         0.027962   
     89. D(C   9,C   8,C   6,C   3)   -179.9802         0.027962   
     90. D(H  18,C   9,C   8,C   6)     89.9949         0.012243   
     91. D(H  20,C   9,C   8,C  10)    150.2471         0.012243   
     92. D(H  20,C   9,C   8,C   6)    -29.9992         0.012243   
     93. D(H  19,C   9,C   8,C  10)     30.2429         0.012243   
     94. D(H  19,C   9,C   8,C   6)   -150.0034         0.012243   
     95. D(H  18,C   9,C   8,C  10)    -89.7588         0.012243   
     96. D(H  21,C  10,C   8,C   9)     -0.2189         0.028754   
     97. D(N   0,C  10,C   8,C   9)   -179.7646         0.028754   
     98. D(N   0,C  10,C   8,C   6)      0.4787         0.028754   
     99. D(H  21,C  10,N   0,C   2)    179.9432         0.044075   
    100. D(H  21,C  10,N   0,C   1)      0.2267         0.044075   
    101. D(H  21,C  10,C   8,C   6)   -179.9755         0.028754   
    102. D(C   8,C  10,N   0,C   2)     -0.5111         0.044075   
    103. D(C   8,C  10,N   0,C   1)    179.7725         0.044075   
    -----------------------------------------------------------------

Number of atoms                         .... 22
Number of degrees of freedom            .... 103

         *************************************************************
         *                GEOMETRY OPTIMIZATION CYCLE   1            *
         *************************************************************
---------------------------------
CARTESIAN COORDINATES (ANGSTROEM)
---------------------------------
  N     -1.639000   -0.028000   -0.002500
  C     -3.104000   -0.042300    0.001900
  C     -1.009100    1.129800   -0.013900
  C      0.377400    1.181400   -0.018300
  O      1.022600    2.377500   -0.030000
  H      1.211900    2.731000    0.849900
  C      1.097700   -0.008600   -0.010000
  C      2.604600    0.001200   -0.013900
  C      0.395600   -1.203200    0.002300
  C      1.130100   -2.519100    0.012100
  C     -0.986200   -1.173800    0.010600
  H     -3.470200   -0.054400   -1.024700
  H     -3.457100   -0.931500    0.524100
  H     -3.474500    0.848300    0.509400
  H     -1.578100    2.047700   -0.020200
  H      2.970600    0.012200    1.012800
  H      2.972400   -0.890700   -0.521100
  H      2.960900    0.889100   -0.536200
  H      1.309800   -2.827200    1.042100
  H      0.528800   -3.274600   -0.493500
  H      2.083000   -2.407100   -0.505100
  H     -1.538800   -2.101700    0.020600

----------------------------
CARTESIAN COORDINATES (A.U.)
----------------------------
  NO LB      ZA    FRAG     MASS         X           Y           Z
   0 N     7.0000    0    14.007   -3.097261   -0.052912   -0.004724
   1 C     6.0000    0    12.011   -5.865710   -0.079935    0.003590
   2 C     6.0000    0    12.011   -1.906923    2.135013   -0.026267
   3 C     6.0000    0    12.011    0.713183    2.232522   -0.034582
   4 O     8.0000    0    15.999    1.932434    4.492824   -0.056692
   5 H     1.0000    0     1.008    2.290159    5.160842    1.606078
   6 C     6.0000    0    12.011    2.074352   -0.016252   -0.018897
   7 C     6.0000    0    12.011    4.921981    0.002268   -0.026267
   8 C     6.0000    0    12.011    0.747576   -2.273718    0.004346
   9 C     6.0000    0    12.011    2.135580   -4.760409    0.022866
  10 C     6.0000    0    12.011   -1.863648   -2.218161    0.020031
  11 H     1.0000    0     1.008   -6.557728   -0.102801   -1.936402
  12 H     1.0000    0     1.008   -6.532972   -1.760280    0.990405
  13 H     1.0000    0     1.008   -6.565853    1.603055    0.962626
  14 H     1.0000    0     1.008   -2.982177    3.869592   -0.038172
  15 H     1.0000    0     1.008    5.613620    0.023055    1.913915
  16 H     1.0000    0     1.008    5.617022   -1.683179   -0.984736
  17 H     1.0000    0     1.008    5.595290    1.680156   -1.013271
  18 H     1.0000    0     1.008    2.475163   -5.342634    1.969284
  19 H     1.0000    0     1.008    0.999287   -6.188097   -0.932580
  20 H     1.0000    0     1.008    3.936300   -4.548760   -0.954501
  21 H     1.0000    0     1.008   -2.907911   -3.971637    0.038928

--------------------------------
INTERNAL COORDINATES (ANGSTROEM)
--------------------------------
 N      0   0   0     0.000000000000     0.00000000     0.00000000
 C      1   0   0     1.465076397325     0.00000000     0.00000000
 C      1   2   0     1.318106524527   119.10797765     0.00000000
 C      3   1   2     1.387466817621   120.68008137   179.99623036
 O      4   3   1     1.359071425643   120.47503414   180.00299587
 H      5   4   3     0.966964709801   114.00668708    90.00037406
 C      4   3   1     1.391043126578   119.05296922   359.97637115
 C      7   4   3     1.506936913079   120.81190682   180.02122456
 C      7   4   3     1.385700133507   118.37145526     0.00000000
 C      9   7   4     1.507043164611   120.38876869   180.01979887
 C      1   2   3     1.318778635708   119.10866356   179.72411720
 H      2   1   3     1.090025875840   109.46419075    90.00390716
 H      2   1   3     1.089976646539   109.47141296   209.99920244
 H      2   1   3     1.089951769575   109.47093075   330.00378798
 H      3   1   2     1.079972731137   119.65869762   359.97650754
 H      8   7   4     1.090041233165   109.47447438    90.00592855
 H      8   7   4     1.089960682777   109.47028151   210.00135149
 H      8   7   4     1.090006142185   109.47578485   329.99975177
 H     10   9   7     1.090008119236   109.46934666    89.99493152
 H     10   9   7     1.089941879184   109.47206789   209.99661413
 H     10   9   7     1.089980848456   109.46775394   330.00084856
 H     11   1   2     1.080030170875   119.55605401     0.22674066

---------------------------
INTERNAL COORDINATES (A.U.)
---------------------------
 N      0   0   0     0.000000000000     0.00000000     0.00000000
 C      1   0   0     2.768593156217     0.00000000     0.00000000
 C      1   2   0     2.490860346690   119.10797765     0.00000000
 C      3   1   2     2.621932305207   120.68008137   179.99623036
 O      4   3   1     2.568272790904   120.47503414   180.00299587
 H      5   4   3     1.827298482690   114.00668708    90.00037406
 C      4   3   1     2.628690549706   119.05296922   359.97637115
 C      7   4   3     2.847698066816   120.81190682   180.02122456
 C      7   4   3     2.618593756065   118.37145526     0.00000000
 C      9   7   4     2.847898853112   120.38876869   180.01979887
 C      1   2   3     2.492130452755   119.10866356   179.72411720
 H      2   1   3     2.059850384225   109.46419075    90.00390716
 H      2   1   3     2.059757354328   109.47141296   209.99920244
 H      2   1   3     2.059710343680   109.47093075   330.00378798
 H      3   1   2     2.040852693952   119.65869762   359.97650754
 H      8   7   4     2.059879405364   109.47447438    90.00592855
 H      8   7   4     2.059727187191   109.47028151   210.00135149
 H      8   7   4     2.059813093021   109.47578485   329.99975177
 H     10   9   7     2.059816829106   109.46934666    89.99493152
 H     10   9   7     2.059691653550   109.47206789   209.99661413
 H     10   9   7     2.059765294800   109.46775394   330.00084856
 H     11   1   2     2.040961239326   119.55605401     0.22674066

---------------------
BASIS SET INFORMATION
---------------------
There are 4 groups of distinct atoms

 Group   1 Type N   : 10s5p1d contracted to 6s2p1d pattern {511111/41/1}
 Group   2 Type C   : 10s5p1d contracted to 6s2p1d pattern {511111/41/1}
 Group   3 Type O   : 10s5p1d contracted to 6s2p1d pattern {511111/41/1}
 Group   4 Type H   : 6s1p contracted to 4s1p pattern {3111/1}

Atom   0N    basis set group =>   1
Atom   1C    basis set group =>   2
Atom   2C    basis set group =>   2
Atom   3C    basis set group =>   2
Atom   4O    basis set group =>   3
Atom   5H    basis set group =>   4
Atom   6C    basis set group =>   2
Atom   7C    basis set group =>   2
Atom   8C    basis set group =>   2
Atom   9C    basis set group =>   2
Atom  10C    basis set group =>   2
Atom  11H    basis set group =>   4
Atom  12H    basis set group =>   4
Atom  13H    basis set group =>   4
Atom  14H    basis set group =>   4
Atom  15H    basis set group =>   4
Atom  16H    basis set group =>   4
Atom  17H    basis set group =>   4
Atom  18H    basis set group =>   4
Atom  19H    basis set group =>   4
Atom  20H    basis set group =>   4
Atom  21H    basis set group =>   4
---------------------------------
AUXILIARY/J BASIS SET INFORMATION
---------------------------------
There are 4 groups of distinct atoms

 Group   1 Type N   : 12s5p4d2f1g contracted to 6s4p3d1f1g pattern {711111/2111/211/2/1}
 Group   2 Type C   : 12s5p4d2f1g contracted to 6s4p3d1f1g pattern {711111/2111/211/2/1}
 Group   3 Type O   : 12s5p4d2f1g contracted to 6s4p3d1f1g pattern {711111/2111/211/2/1}
 Group   4 Type H   : 5s2p1d contracted to 3s1p1d pattern {311/2/1}

Atom   0N    basis set group =>   1
Atom   1C    basis set group =>   2
Atom   2C    basis set group =>   2
Atom   3C    basis set group =>   2
Atom   4O    basis set group =>   3
Atom   5H    basis set group =>   4
Atom   6C    basis set group =>   2
Atom   7C    basis set group =>   2
Atom   8C    basis set group =>   2
Atom   9C    basis set group =>   2
Atom  10C    basis set group =>   2
Atom  11H    basis set group =>   4
Atom  12H    basis set group =>   4
Atom  13H    basis set group =>   4
Atom  14H    basis set group =>   4
Atom  15H    basis set group =>   4
Atom  16H    basis set group =>   4
Atom  17H    basis set group =>   4
Atom  18H    basis set group =>   4
Atom  19H    basis set group =>   4
Atom  20H    basis set group =>   4
Atom  21H    basis set group =>   4


           ************************************************************
           *        Program running with 16 parallel MPI-processes    *
           *              working on a common directory               *
           ************************************************************
------------------------------------------------------------------------------
                           ORCA GTO INTEGRAL CALCULATION
                           -- RI-GTO INTEGRALS CHOSEN --
------------------------------------------------------------------------------
------------------------------------------------------------------------------
                   ___                                                        
                  /   \      - P O W E R E D   B Y -                         
                 /     \                                                     
                 |  |  |   _    _      __       _____    __    __             
                 |  |  |  | |  | |    /  \     |  _  \  |  |  /  |          
                  \  \/   | |  | |   /    \    | | | |  |  | /  /          
                 / \  \   | |__| |  /  /\  \   | |_| |  |  |/  /          
                |  |  |   |  __  | /  /__\  \  |    /   |      \           
                |  |  |   | |  | | |   __   |  |    \   |  |\   \          
                \     /   | |  | | |  |  |  |  | |\  \  |  | \   \       
                 \___/    |_|  |_| |__|  |__|  |_| \__\ |__|  \__/        
                                                                              
                      - O R C A' S   B I G   F R I E N D -                    
                                      &                                       
                       - I N T E G R A L  F E E D E R -                       
                                                                              
 v1 FN, 2020, v2 2021                                                         
------------------------------------------------------------------------------


Reading SHARK input file opt_EPRII.SHARKINP.tmp ... ok
----------------------
SHARK INTEGRAL PACKAGE
----------------------

Number of atoms                             ...     22
Number of basis functions                   ...    254
Number of shells                            ...    150
Maximum angular momentum                    ...      2
Integral batch strategy                     ... SHARK/LIBINT Hybrid
RI-J (if used) integral strategy            ... SPLIT-RIJ (Revised 2003 algorithm where possible)
Printlevel                                  ...      1
Contraction scheme used                     ... SEGMENTED contraction
Coulomb Range Separation                    ... NOT USED
Exchange Range Separation                   ... NOT USED
Finite Nucleus Model                        ... NOT USED
Auxiliary Coulomb fitting basis             ... AVAILABLE
   # of basis functions in Aux-J            ...    622
   # of shells in Aux-J                     ...    210
   Maximum angular momentum in Aux-J        ...      4
Auxiliary J/K fitting basis                 ... NOT available
Auxiliary Correlation fitting basis         ... NOT available
Auxiliary 'external' fitting basis          ... NOT available
Integral threshold                          ...     2.500000e-11
Primitive cut-off                           ...     2.500000e-12
Primitive pair pre-selection threshold      ...     2.500000e-12

Calculating pre-screening integrals         ... done (  0.0 sec) Dimension = 150
Organizing shell pair data                  ... done (  0.1 sec)
Shell pair information
Total number of shell pairs                 ...     11325
Shell pairs after pre-screening             ...      8759
Total number of primitive shell pairs       ...     30086
Primitive shell pairs kept                  ...     17753
          la=0 lb=0:   4083 shell pairs
          la=1 lb=0:   2925 shell pairs
          la=1 lb=1:    485 shell pairs
          la=2 lb=0:    906 shell pairs
          la=2 lb=1:    305 shell pairs
          la=2 lb=2:     55 shell pairs

Calculating one electron integrals          ... done (  0.0 sec)
Calculating RI/J V-Matrix + Cholesky decomp.... done (  0.1 sec)
Calculating Nuclear repulsion               ... done (  0.0 sec) ENN=    539.266221196356 Eh

SHARK setup successfully completed in   0.4 seconds

Maximum memory used throughout the entire GTOINT-calculation: 16.2 MB


           ************************************************************
           *        Program running with 16 parallel MPI-processes    *
           *              working on a common directory               *
           ************************************************************
-------------------------------------------------------------------------------
                                 ORCA SCF
-------------------------------------------------------------------------------

------------
SCF SETTINGS
------------
Hamiltonian:
 Density Functional     Method          .... DFT(GTOs)
 Exchange Functional    Exchange        .... B88
   X-Alpha parameter    XAlpha          ....  0.666667
   Becke's b parameter  XBeta           ....  0.004200
 Correlation Functional Correlation     .... LYP
 LDA part of GGA corr.  LDAOpt          .... VWN-5
 Gradients option       PostSCFGGA      .... off
 Hybrid DFT is turned on
   Fraction HF Exchange ScalHFX         ....  0.200000
   Scaling of DF-GGA-X  ScalDFX         ....  0.720000
   Scaling of DF-GGA-C  ScalDFC         ....  0.810000
   Scaling of DF-LDA-C  ScalLDAC        ....  1.000000
   Perturbative correction              ....  0.000000
   Density functional embedding theory  .... OFF
   NL short-range parameter             ....  4.800000
 RI-approximation to the Coulomb term is turned on
   Number of AuxJ basis functions       .... 622
   RIJ-COSX (HFX calculated with COS-X)).... on


General Settings:
 Integral files         IntName         .... opt_EPRII
 Hartree-Fock type      HFTyp           .... RHF
 Total Charge           Charge          ....    1
 Multiplicity           Mult            ....    1
 Number of Electrons    NEL             ....   74
 Basis Dimension        Dim             ....  254
 Nuclear Repulsion      ENuc            ....    539.2662211964 Eh

Convergence Acceleration:
 DIIS                   CNVDIIS         .... on
   Start iteration      DIISMaxIt       ....    12
   Startup error        DIISStart       ....  0.200000
   # of expansion vecs  DIISMaxEq       ....     5
   Bias factor          DIISBfac        ....   1.050
   Max. coefficient     DIISMaxC        ....  10.000
 Trust-Rad. Augm. Hess. CNVTRAH         .... auto
   Auto Start mean grad. ratio tolernc. ....  1.125000
   Auto Start start iteration           ....    20
   Auto Start num. interpolation iter.  ....    10
   Max. Number of Micro iterations      ....    16
   Max. Number of Macro iterations      .... Maxiter - #DIIS iter
   Number of Davidson start vectors     ....     2
   Converg. threshold I  (grad. norm)   ....   1.000e-05
   Converg. threshold II (energy diff.) ....   1.000e-08
   Grad. Scal. Fac. for Micro threshold ....   0.100
   Minimum threshold for Micro iter.    ....   0.010
   NR start threshold (gradient norm)   ....   0.001
   Initial trust radius                 ....   0.400
   Minimum AH scaling param. (alpha)    ....   1.000
   Maximum AH scaling param. (alpha)    .... 1000.000
   Orbital update algorithm             .... Taylor
   White noise on init. David. guess    .... on
   Maximum white noise                  ....   0.010
   Quad. conv. algorithm                .... NR
 SOSCF                  CNVSOSCF        .... on
   Start iteration      SOSCFMaxIt      ....   150
   Startup grad/error   SOSCFStart      ....  0.003300
 Level Shifting         CNVShift        .... on
   Level shift para.    LevelShift      ....    0.2500
   Turn off err/grad.   ShiftErr        ....    0.0010
 Zerner damping         CNVZerner       .... off
 Static damping         CNVDamp         .... on
   Fraction old density DampFac         ....    0.7000
   Max. Damping (<1)    DampMax         ....    0.9800
   Min. Damping (>=0)   DampMin         ....    0.0000
   Turn off err/grad.   DampErr         ....    0.1000
 Fernandez-Rico         CNVRico         .... off

SCF Procedure:
 Maximum # iterations   MaxIter         ....   125
 SCF integral mode      SCFMode         .... Direct
   Integral package                     .... SHARK and LIBINT hybrid scheme
 Reset frequency        DirectResetFreq ....    20
 Integral Threshold     Thresh          ....  2.500e-11 Eh
 Primitive CutOff       TCut            ....  2.500e-12 Eh

Convergence Tolerance:
 Convergence Check Mode ConvCheckMode   .... Total+1el-Energy
 Convergence forced     ConvForced      .... 0
 Energy Change          TolE            ....  1.000e-08 Eh
 1-El. energy change                    ....  1.000e-05 Eh
 Orbital Gradient       TolG            ....  1.000e-05
 Orbital Rotation angle TolX            ....  1.000e-05
 DIIS Error             TolErr          ....  5.000e-07


Diagonalization of the overlap matrix:
Smallest eigenvalue                        ... 2.383e-04
Time for diagonalization                   ...    0.019 sec
Threshold for overlap eigenvalues          ... 1.000e-08
Number of eigenvalues below threshold      ... 0
Time for construction of square roots      ...    0.025 sec
Total time needed                          ...    0.045 sec

Time for model grid setup =    0.147 sec

------------------------------
INITIAL GUESS: MODEL POTENTIAL
------------------------------
Loading Hartree-Fock densities                     ... done
Calculating cut-offs                               ... done
Initializing the effective Hamiltonian             ... done
Setting up the integral package (SHARK)            ... done
Starting the Coulomb interaction                   ... done (   0.1 sec)
Reading the grid                                   ... done
Mapping shells                                     ... done
Starting the XC term evaluation                    ... done (   0.0 sec)
  promolecular density results
     # of electrons  =     74.989503368
     EX              =    -59.584142108
     EC              =     -2.512776233
     EX+EC           =    -62.096918342
Transforming the Hamiltonian                       ... done (   0.0 sec)
Diagonalizing the Hamiltonian                      ... done (   0.0 sec)
Back transforming the eigenvectors                 ... done (   0.0 sec)
Now organizing SCF variables                       ... done
                      ------------------
                      INITIAL GUESS DONE (   0.5 sec)
                      ------------------
-------------------
DFT GRID GENERATION
-------------------

General Integration Accuracy     IntAcc      ... 4.388
Radial Grid Type                 RadialGrid  ... OptM3 with GC (2021)
Angular Grid (max. ang.)         AngularGrid ... 4 (Lebedev-302)
Angular grid pruning method      GridPruning ... 4 (adaptive)
Weight generation scheme         WeightScheme... Becke
Basis function cutoff            BFCut       ... 1.0000e-11
Integration weight cutoff        WCut        ... 1.0000e-14
Angular grids for H and He will be reduced by one unit
Partially contracted basis set               ... off
Rotationally invariant grid construction     ... off

Total number of grid points                  ...    98364
Total number of batches                      ...     1547
Average number of points per batch           ...       63
Average number of grid points per atom       ...     4471
Time for grid setup =    0.495 sec

--------------------
COSX GRID GENERATION
--------------------

GRIDX 1
-------
General Integration Accuracy     IntAcc      ... 3.816
Radial Grid Type                 RadialGrid  ... OptM3 with GC (2021)
Angular Grid (max. ang.)         AngularGrid ... 1 (Lebedev-50)
Angular grid pruning method      GridPruning ... 4 (adaptive)
Weight generation scheme         WeightScheme... Becke
Basis function cutoff            BFCut       ... 1.0000e-11
Integration weight cutoff        WCut        ... 1.0000e-14
Angular grids for H and He will be reduced by one unit
Partially contracted basis set               ... on
Rotationally invariant grid construction     ... off

Total number of grid points                  ...    12640
Total number of batches                      ...      208
Average number of points per batch           ...       60
Average number of grid points per atom       ...      575
UseSFitting                                  ... on

GRIDX 2
-------
General Integration Accuracy     IntAcc      ... 4.020
Radial Grid Type                 RadialGrid  ... OptM3 with GC (2021)
Angular Grid (max. ang.)         AngularGrid ... 2 (Lebedev-110)
Angular grid pruning method      GridPruning ... 4 (adaptive)
Weight generation scheme         WeightScheme... Becke
Basis function cutoff            BFCut       ... 1.0000e-11
Integration weight cutoff        WCut        ... 1.0000e-14
Angular grids for H and He will be reduced by one unit
Partially contracted basis set               ... on
Rotationally invariant grid construction     ... off

Total number of grid points                  ...    26792
Total number of batches                      ...      430
Average number of points per batch           ...       62
Average number of grid points per atom       ...     1218
UseSFitting                                  ... on

GRIDX 3
-------
General Integration Accuracy     IntAcc      ... 4.338
Radial Grid Type                 RadialGrid  ... OptM3 with GC (2021)
Angular Grid (max. ang.)         AngularGrid ... 3 (Lebedev-194)
Angular grid pruning method      GridPruning ... 4 (adaptive)
Weight generation scheme         WeightScheme... Becke
Basis function cutoff            BFCut       ... 1.0000e-11
Integration weight cutoff        WCut        ... 1.0000e-14
Angular grids for H and He will be reduced by one unit
Partially contracted basis set               ... on
Rotationally invariant grid construction     ... off

Total number of grid points                  ...    58704
Total number of batches                      ...      928
Average number of points per batch           ...       63
Average number of grid points per atom       ...     2668
UseSFitting                                  ... on

Time for X-Grid setup             =    1.028 sec

--------------
SCF ITERATIONS
--------------
ITER       Energy         Delta-E        Max-DP      RMS-DP      [F,P]     Damp
               ***  Starting incremental Fock matrix formation  ***
  0   -441.4266777347   0.000000000000 0.08976070  0.00195812  0.2115205 0.7000
  1   -441.5179378096  -0.091260074848 0.06600861  0.00139857  0.0914462 0.7000
                               ***Turning on DIIS***
  2   -441.5559870965  -0.038049286954 0.13986255  0.00258707  0.0310078 0.0000
  3   -441.6141988782  -0.058211781696 0.03960841  0.00084349  0.0468817 0.0000
  4   -441.6273863369  -0.013187458718 0.01139839  0.00027339  0.0075400 0.0000
  5   -441.6278710754  -0.000484738467 0.00456944  0.00009674  0.0063409 0.0000
                      *** Initiating the SOSCF procedure ***
                           *** Shutting down DIIS ***
                      *** Re-Reading the Fockian *** 
                      *** Removing any level shift *** 
ITER      Energy       Delta-E        Grad      Rot      Max-DP    RMS-DP
  6   -441.62795203  -0.0000809521  0.000295  0.000295  0.001980  0.000045
               *** Restarting incremental Fock matrix formation ***
  7   -441.62792497   0.0000270570  0.000301  0.001183  0.002007  0.000034
  8   -441.62791925   0.0000057168  0.000580  0.000803  0.001349  0.000019
  9   -441.62792774  -0.0000084872  0.000062  0.000152  0.000524  0.000006
 10   -441.62792756   0.0000001814  0.000116  0.000102  0.000347  0.000003
 11   -441.62792785  -0.0000002883  0.000006  0.000025  0.000042  0.000001
 12   -441.62792785  -0.0000000040  0.000011  0.000021  0.000036  0.000000
                  ***Gradient check signals convergence***
              ***Rediagonalizing the Fockian in SOSCF/NRSCF***

               *****************************************************
               *                     SUCCESS                       *
               *           SCF CONVERGED AFTER  13 CYCLES          *
               *****************************************************

Old exchange energy                            =    -12.079687884 Eh
New exchange energy                            =    -12.079717693 Eh
Exchange energy change after final integration =     -0.000029809 Eh
Total energy after final integration           =   -441.627957658 Eh
Final COS-X integration done in                =     1.645 sec

----------------
TOTAL SCF ENERGY
----------------

Total Energy       :         -441.62795766 Eh          -12017.30768 eV

Components:
Nuclear Repulsion  :          539.26622120 Eh           14674.17990 eV
Electronic Energy  :         -980.89417885 Eh          -26691.48758 eV
One Electron Energy:        -1653.21367537 Eh          -44986.23116 eV
Two Electron Energy:          672.31949652 Eh           18294.74359 eV
Max COSX asymmetry :            0.00000415 Eh               0.00011 eV

Virial components:
Potential Energy   :         -880.62818691 Eh          -23963.11123 eV
Kinetic Energy     :          439.00022925 Eh           11945.80355 eV
Virial Ratio       :            2.00598571


DFT components:
N(Alpha)           :       36.999948452880 electrons
N(Beta)            :       36.999948452880 electrons
N(Total)           :       73.999896905760 electrons
E(X)               :      -47.958228912011 Eh       
E(C)               :       -2.931799450319 Eh       
E(XC)              :      -50.890028362329 Eh       
DFET-embed. en.    :        0.000000000000 Eh       

---------------
SCF CONVERGENCE
---------------

  Last Energy change         ...    1.8887e-09  Tolerance :   1.0000e-08
  Last MAX-Density change    ...    1.2212e-15  Tolerance :   1.0000e-07
  Last RMS-Density change    ...    2.5575e-17  Tolerance :   5.0000e-09
  Last Orbital Gradient      ...    2.0078e-06  Tolerance :   1.0000e-05
  Last Orbital Rotation      ...    7.5596e-06  Tolerance :   1.0000e-05

             **** THE GBW FILE WAS UPDATED (opt_EPRII.gbw) ****
             **** DENSITY opt_EPRII.scfp WAS UPDATED ****
             **** ENERGY FILE WAS UPDATED (opt_EPRII.en.tmp) ****
             **** THE GBW FILE WAS UPDATED (opt_EPRII.gbw) ****
             **** DENSITY opt_EPRII.scfp WAS UPDATED ****
----------------
ORBITAL ENERGIES
----------------

  NO   OCC          E(Eh)            E(eV) 
   0   2.0000     -19.320167      -525.7285 
   1   2.0000     -14.606862      -397.4729 
   2   2.0000     -10.434793      -283.9452 
   3   2.0000     -10.416488      -283.4470 
   4   2.0000     -10.414929      -283.4046 
   5   2.0000     -10.391497      -282.7670 
   6   2.0000     -10.388129      -282.6754 
   7   2.0000     -10.385731      -282.6101 
   8   2.0000     -10.328987      -281.0660 
   9   2.0000     -10.325541      -280.9723 
  10   2.0000      -1.220236       -33.2043 
  11   2.0000      -1.202871       -32.7318 
  12   2.0000      -1.019699       -27.7474 
  13   2.0000      -0.967390       -26.3240 
  14   2.0000      -0.921612       -25.0783 
  15   2.0000      -0.885924       -24.1072 
  16   2.0000      -0.854906       -23.2632 
  17   2.0000      -0.805172       -21.9098 
  18   2.0000      -0.776789       -21.1375 
  19   2.0000      -0.724325       -19.7099 
  20   2.0000      -0.705677       -19.2025 
  21   2.0000      -0.691781       -18.8243 
  22   2.0000      -0.660020       -17.9601 
  23   2.0000      -0.627323       -17.0703 
  24   2.0000      -0.613146       -16.6846 
  25   2.0000      -0.599839       -16.3224 
  26   2.0000      -0.585336       -15.9278 
  27   2.0000      -0.575672       -15.6648 
  28   2.0000      -0.566347       -15.4111 
  29   2.0000      -0.555008       -15.1025 
  30   2.0000      -0.544481       -14.8161 
  31   2.0000      -0.538119       -14.6430 
  32   2.0000      -0.524544       -14.2736 
  33   2.0000      -0.511697       -13.9240 
  34   2.0000      -0.465083       -12.6555 
  35   2.0000      -0.445123       -12.1124 
  36   2.0000      -0.432393       -11.7660 
  37   0.0000      -0.220827        -6.0090 
  38   0.0000      -0.191151        -5.2015 
  39   0.0000      -0.130015        -3.5379 
  40   0.0000      -0.114841        -3.1250 
  41   0.0000      -0.096166        -2.6168 
  42   0.0000      -0.079962        -2.1759 
  43   0.0000      -0.074166        -2.0182 
  44   0.0000      -0.068004        -1.8505 
  45   0.0000      -0.056022        -1.5244 
  46   0.0000      -0.046271        -1.2591 
  47   0.0000      -0.024514        -0.6671 
  48   0.0000      -0.011974        -0.3258 
  49   0.0000       0.006550         0.1782 
  50   0.0000       0.009649         0.2626 
  51   0.0000       0.019571         0.5326 
  52   0.0000       0.026396         0.7183 
  53   0.0000       0.043581         1.1859 
  54   0.0000       0.052221         1.4210 
  55   0.0000       0.052751         1.4354 
  56   0.0000       0.060075         1.6347 
  57   0.0000       0.070190         1.9100 
  58   0.0000       0.080663         2.1950 
  59   0.0000       0.087331         2.3764 
  60   0.0000       0.089788         2.4432 
  61   0.0000       0.108668         2.9570 
  62   0.0000       0.110678         3.0117 
  63   0.0000       0.124259         3.3813 
  64   0.0000       0.125871         3.4251 
  65   0.0000       0.135215         3.6794 
  66   0.0000       0.143920         3.9163 
  67   0.0000       0.154320         4.1993 
  68   0.0000       0.159860         4.3500 
  69   0.0000       0.166395         4.5278 
  70   0.0000       0.168860         4.5949 
  71   0.0000       0.181839         4.9481 
  72   0.0000       0.193132         5.2554 
  73   0.0000       0.205970         5.6047 
  74   0.0000       0.225121         6.1259 
  75   0.0000       0.232168         6.3176 
  76   0.0000       0.241671         6.5762 
  77   0.0000       0.249855         6.7989 
  78   0.0000       0.263406         7.1677 
  79   0.0000       0.274893         7.4802 
  80   0.0000       0.281096         7.6490 
  81   0.0000       0.291988         7.9454 
  82   0.0000       0.302284         8.2256 
  83   0.0000       0.318459         8.6657 
  84   0.0000       0.334257         9.0956 
  85   0.0000       0.342970         9.3327 
  86   0.0000       0.364163         9.9094 
  87   0.0000       0.379283        10.3208 
  88   0.0000       0.386462        10.5162 
  89   0.0000       0.410335        11.1658 
  90   0.0000       0.412447        11.2233 
  91   0.0000       0.476666        12.9707 
  92   0.0000       0.487255        13.2589 
  93   0.0000       0.495884        13.4937 
  94   0.0000       0.512358        13.9420 
  95   0.0000       0.540988        14.7210 
  96   0.0000       0.581471        15.8226 
  97   0.0000       0.591867        16.1055 
  98   0.0000       0.640325        17.4241 
  99   0.0000       0.647462        17.6183 
 100   0.0000       0.653626        17.7861 
 101   0.0000       0.667427        18.1616 
 102   0.0000       0.682399        18.5690 
 103   0.0000       0.701077        19.0773 
 104   0.0000       0.709458        19.3053 
 105   0.0000       0.719934        19.5904 
 106   0.0000       0.734404        19.9841 
 107   0.0000       0.743542        20.2328 
 108   0.0000       0.757230        20.6053 
 109   0.0000       0.764844        20.8125 
 110   0.0000       0.767738        20.8912 
 111   0.0000       0.782083        21.2816 
 112   0.0000       0.788897        21.4670 
 113   0.0000       0.807134        21.9632 
 114   0.0000       0.809777        22.0352 
 115   0.0000       0.813970        22.1492 
 116   0.0000       0.819806        22.3080 
 117   0.0000       0.845147        22.9976 
 118   0.0000       0.854071        23.2404 
 119   0.0000       0.870354        23.6835 
 120   0.0000       0.883484        24.0408 
 121   0.0000       0.901903        24.5420 
 122   0.0000       0.904092        24.6016 
 123   0.0000       0.933849        25.4113 
 124   0.0000       0.951582        25.8939 
 125   0.0000       0.962071        26.1793 
 126   0.0000       0.998124        27.1603 
 127   0.0000       1.031917        28.0799 
 128   0.0000       1.037662        28.2362 
 129   0.0000       1.047792        28.5119 
 130   0.0000       1.088724        29.6257 
 131   0.0000       1.102060        29.9886 
 132   0.0000       1.110552        30.2196 
 133   0.0000       1.127842        30.6902 
 134   0.0000       1.175438        31.9853 
 135   0.0000       1.195218        32.5235 
 136   0.0000       1.197280        32.5796 
 137   0.0000       1.217635        33.1335 
 138   0.0000       1.249792        34.0086 
 139   0.0000       1.272141        34.6167 
 140   0.0000       1.296471        35.2788 
 141   0.0000       1.316009        35.8104 
 142   0.0000       1.318926        35.8898 
 143   0.0000       1.338330        36.4178 
 144   0.0000       1.347925        36.6789 
 145   0.0000       1.371008        37.3070 
 146   0.0000       1.383215        37.6392 
 147   0.0000       1.405366        38.2420 
 148   0.0000       1.409126        38.3443 
 149   0.0000       1.414552        38.4919 
 150   0.0000       1.430672        38.9306 
 151   0.0000       1.439617        39.1740 
 152   0.0000       1.456800        39.6415 
 153   0.0000       1.471100        40.0307 
 154   0.0000       1.494217        40.6597 
 155   0.0000       1.505808        40.9751 
 156   0.0000       1.524865        41.4937 
 157   0.0000       1.529294        41.6142 
 158   0.0000       1.542123        41.9633 
 159   0.0000       1.575913        42.8828 
 160   0.0000       1.581572        43.0368 
 161   0.0000       1.590584        43.2820 
 162   0.0000       1.622827        44.1594 
 163   0.0000       1.637672        44.5633 
 164   0.0000       1.664181        45.2847 
 165   0.0000       1.687488        45.9189 
 166   0.0000       1.688961        45.9590 
 167   0.0000       1.719952        46.8023 
 168   0.0000       1.777081        48.3568 
 169   0.0000       1.791761        48.7563 
 170   0.0000       1.807880        49.1949 
 171   0.0000       1.820657        49.5426 
 172   0.0000       1.834380        49.9160 
 173   0.0000       1.852363        50.4054 
 174   0.0000       1.896968        51.6191 
 175   0.0000       1.925267        52.3892 
 176   0.0000       1.939550        52.7778 
 177   0.0000       1.971884        53.6577 
 178   0.0000       1.990476        54.1636 
 179   0.0000       2.013059        54.7781 
 180   0.0000       2.043666        55.6110 
 181   0.0000       2.051406        55.8216 
 182   0.0000       2.068809        56.2952 
 183   0.0000       2.106601        57.3235 
 184   0.0000       2.123628        57.7869 
 185   0.0000       2.155422        58.6520 
 186   0.0000       2.201667        59.9104 
 187   0.0000       2.226794        60.5942 
 188   0.0000       2.246092        61.1193 
 189   0.0000       2.248467        61.1839 
 190   0.0000       2.279114        62.0178 
 191   0.0000       2.283662        62.1416 
 192   0.0000       2.295385        62.4606 
 193   0.0000       2.321504        63.1713 
 194   0.0000       2.340728        63.6945 
 195   0.0000       2.348301        63.9005 
 196   0.0000       2.369572        64.4793 
 197   0.0000       2.385138        64.9029 
 198   0.0000       2.401779        65.3557 
 199   0.0000       2.491894        67.8079 
 200   0.0000       2.536185        69.0131 
 201   0.0000       2.566712        69.8438 
 202   0.0000       2.577873        70.1475 
 203   0.0000       2.749031        74.8049 
 204   0.0000       2.762865        75.1814 
 205   0.0000       2.843713        77.3814 
 206   0.0000       3.032071        82.5068 
 207   0.0000       3.086872        83.9981 
 208   0.0000       3.312860        90.1475 
 209   0.0000       3.352689        91.2313 
 210   0.0000       4.815708       131.0421 
 211   0.0000       4.834341       131.5491 
 212   0.0000       4.862673       132.3201 
 213   0.0000       4.874086       132.6306 
 214   0.0000       4.888010       133.0095 
 215   0.0000       4.897606       133.2706 
 216   0.0000       4.939617       134.4138 
 217   0.0000       4.964067       135.0791 
 218   0.0000       5.054824       137.5488 
 219   0.0000       5.088516       138.4656 
 220   0.0000       5.163648       140.5100 
 221   0.0000       5.209464       141.7567 
 222   0.0000       5.277963       143.6207 
 223   0.0000       5.299644       144.2107 
 224   0.0000       5.333531       145.1328 
 225   0.0000       5.420411       147.4969 
 226   0.0000       5.476088       149.0119 
 227   0.0000       5.520628       150.2239 
 228   0.0000       5.568330       151.5220 
 229   0.0000       5.821120       158.4007 
 230   0.0000       7.146370       194.4626 
 231   0.0000       8.936294       243.1689 
 232   0.0000      29.576226       804.8100 
 233   0.0000      29.704124       808.2903 
 234   0.0000      29.777699       810.2924 
 235   0.0000      29.838055       811.9348 
 236   0.0000      29.877711       813.0139 
 237   0.0000      29.904043       813.7304 
 238   0.0000      29.979341       815.7793 
 239   0.0000      30.126826       819.7926 
 240   0.0000      36.397880       990.4367 
 241   0.0000      36.454593       991.9799 
 242   0.0000      36.466732       992.3102 
 243   0.0000      36.493916       993.0499 
 244   0.0000      36.499269       993.1956 
 245   0.0000      36.513879       993.5932 
 246   0.0000      36.569130       995.0966 
 247   0.0000      36.637314       996.9520 
 248   0.0000      36.665853       997.7286 
 249   0.0000      36.728079       999.4218 
 250   0.0000      36.789334      1001.0887 
 251   0.0000      36.849408      1002.7234 
 252   0.0000      41.078057      1117.7908 
 253   0.0000      53.476246      1455.1626 

                    ********************************
                    * MULLIKEN POPULATION ANALYSIS *
                    ********************************

-----------------------
MULLIKEN ATOMIC CHARGES
-----------------------
   0 N :    0.417270
   1 C :   -0.427234
   2 C :   -0.230179
   3 C :    0.110001
   4 O :   -0.346060
   5 H :    0.314332
   6 C :    0.196105
   7 C :   -0.543365
   8 C :    0.348652
   9 C :   -0.535772
  10 C :   -0.324285
  11 H :    0.217684
  12 H :    0.183465
  13 H :    0.183661
  14 H :    0.177612
  15 H :    0.198857
  16 H :    0.161347
  17 H :    0.197543
  18 H :    0.199484
  19 H :    0.165916
  20 H :    0.165207
  21 H :    0.169757
Sum of atomic charges:    1.0000000

--------------------------------
MULLIKEN REDUCED ORBITAL CHARGES
--------------------------------
  0 N s       :     3.215113  s :     3.215113
      pz      :     1.348863  p :     3.309784
      px      :     1.000445
      py      :     0.960476
      dz2     :     0.002846  d :     0.057832
      dxz     :     0.006694
      dyz     :     0.011720
      dx2y2   :     0.017743
      dxy     :     0.018830
  1 C s       :     3.223255  s :     3.223255
      pz      :     1.179751  p :     3.120278
      px      :     0.782015
      py      :     1.158512
      dz2     :     0.016651  d :     0.083700
      dxz     :     0.015536
      dyz     :     0.013070
      dx2y2   :     0.024442
      dxy     :     0.014000
  2 C s       :     3.171564  s :     3.171564
      pz      :     0.967042  p :     2.964964
      px      :     1.015904
      py      :     0.982018
      dz2     :     0.005709  d :     0.093652
      dxz     :     0.012711
      dyz     :     0.012364
      dx2y2   :     0.030171
      dxy     :     0.032698
  3 C s       :     3.045962  s :     3.045962
      pz      :     0.959875  p :     2.698160
      px      :     0.911696
      py      :     0.826589
      dz2     :     0.006839  d :     0.145877
      dxz     :     0.014426
      dyz     :     0.023259
      dx2y2   :     0.055269
      dxy     :     0.046083
  4 O s       :     3.825286  s :     3.825286
      pz      :     1.439375  p :     4.504126
      px      :     1.712151
      py      :     1.352599
      dz2     :     0.006238  d :     0.016648
      dxz     :     0.001419
      dyz     :     0.003062
      dx2y2   :     0.002546
      dxy     :     0.003384
  5 H s       :     0.622546  s :     0.622546
      pz      :     0.021673  p :     0.063122
      px      :     0.021292
      py      :     0.020158
  6 C s       :     3.082603  s :     3.082603
      pz      :     0.873841  p :     2.636573
      px      :     0.868747
      py      :     0.893985
      dz2     :     0.004448  d :     0.084720
      dxz     :     0.014172
      dyz     :     0.010222
      dx2y2   :     0.024159
      dxy     :     0.031719
  7 C s       :     3.238137  s :     3.238137
      pz      :     1.129982  p :     3.239624
      px      :     0.953097
      py      :     1.156546
      dz2     :     0.014550  d :     0.065603
      dxz     :     0.009962
      dyz     :     0.012271
      dx2y2   :     0.018118
      dxy     :     0.010701
  8 C s       :     3.006809  s :     3.006809
      pz      :     0.907776  p :     2.558324
      px      :     0.835551
      py      :     0.814998
      dz2     :     0.004524  d :     0.086214
      dxz     :     0.010759
      dyz     :     0.012593
      dx2y2   :     0.031848
      dxy     :     0.026489
  9 C s       :     3.242950  s :     3.242950
      pz      :     1.136230  p :     3.226330
      px      :     1.094582
      py      :     0.995519
      dz2     :     0.014734  d :     0.066492
      dxz     :     0.012304
      dyz     :     0.010935
      dx2y2   :     0.012522
      dxy     :     0.015996
 10 C s       :     3.207537  s :     3.207537
      pz      :     0.959644  p :     3.017545
      px      :     1.028480
      py      :     1.029422
      dz2     :     0.005707  d :     0.099203
      dxz     :     0.012668
      dyz     :     0.012033
      dx2y2   :     0.029774
      dxy     :     0.039019
 11 H s       :     0.763930  s :     0.763930
      pz      :     0.010085  p :     0.018386
      px      :     0.003729
      py      :     0.004572
 12 H s       :     0.797779  s :     0.797779
      pz      :     0.006166  p :     0.018756
      px      :     0.003993
      py      :     0.008598
 13 H s       :     0.797574  s :     0.797574
      pz      :     0.006092  p :     0.018764
      px      :     0.004080
      py      :     0.008592
 14 H s       :     0.800333  s :     0.800333
      pz      :     0.005462  p :     0.022056
      px      :     0.006064
      py      :     0.010530
 15 H s       :     0.780795  s :     0.780795
      pz      :     0.009470  p :     0.020348
      px      :     0.006051
      py      :     0.004827
 16 H s       :     0.817506  s :     0.817506
      pz      :     0.005959  p :     0.021146
      px      :     0.006177
      py      :     0.009011
 17 H s       :     0.782670  s :     0.782670
      pz      :     0.005610  p :     0.019787
      px      :     0.005287
      py      :     0.008890
 18 H s       :     0.780489  s :     0.780489
      pz      :     0.009529  p :     0.020028
      px      :     0.004901
      py      :     0.005598
 19 H s       :     0.814451  s :     0.814451
      pz      :     0.005761  p :     0.019632
      px      :     0.005769
      py      :     0.008102
 20 H s       :     0.813671  s :     0.813671
      pz      :     0.005930  p :     0.021122
      px      :     0.009487
      py      :     0.005705
 21 H s       :     0.808216  s :     0.808216
      pz      :     0.005501  p :     0.022027
      px      :     0.006096
      py      :     0.010431


                     *******************************
                     * LOEWDIN POPULATION ANALYSIS *
                     *******************************

----------------------
LOEWDIN ATOMIC CHARGES
----------------------
   0 N :    0.167645
   1 C :    0.072062
   2 C :    0.032526
   3 C :   -0.044828
   4 O :    0.020807
   5 H :    0.107510
   6 C :   -0.009163
   7 C :    0.002623
   8 C :   -0.044714
   9 C :    0.002273
  10 C :    0.027058
  11 H :    0.059038
  12 H :    0.055362
  13 H :    0.055426
  14 H :    0.079549
  15 H :    0.065800
  16 H :    0.048945
  17 H :    0.061405
  18 H :    0.063071
  19 H :    0.052218
  20 H :    0.049747
  21 H :    0.075640

-------------------------------
LOEWDIN REDUCED ORBITAL CHARGES
-------------------------------
  0 N s       :     3.027601  s :     3.027601
      pz      :     1.274449  p :     3.661589
      px      :     1.178853
      py      :     1.208287
      dz2     :     0.006574  d :     0.143165
      dxz     :     0.013601
      dyz     :     0.028101
      dx2y2   :     0.049215
      dxy     :     0.045674
  1 C s       :     2.850733  s :     2.850733
      pz      :     1.062380  p :     2.931383
      px      :     0.811646
      py      :     1.057357
      dz2     :     0.025750  d :     0.145821
      dxz     :     0.032465
      dyz     :     0.014431
      dx2y2   :     0.051320
      dxy     :     0.021855
  2 C s       :     2.832593  s :     2.832593
      pz      :     0.935178  p :     2.900609
      px      :     1.022848
      py      :     0.942583
      dz2     :     0.016523  d :     0.234272
      dxz     :     0.033385
      dyz     :     0.029225
      dx2y2   :     0.073085
      dxy     :     0.082055
  3 C s       :     2.811682  s :     2.811682
      pz      :     0.923044  p :     2.870632
      px      :     1.024333
      py      :     0.923254
      dz2     :     0.021951  d :     0.362514
      dxz     :     0.035528
      dyz     :     0.048406
      dx2y2   :     0.136815
      dxy     :     0.119815
  4 O s       :     3.424960  s :     3.424960
      pz      :     1.437111  p :     4.529157
      px      :     1.679327
      py      :     1.412719
      dz2     :     0.007046  d :     0.025076
      dxz     :     0.001532
      dyz     :     0.004467
      dx2y2   :     0.005233
      dxy     :     0.006798
  5 H s       :     0.690855  s :     0.690855
      pz      :     0.099615  p :     0.201635
      px      :     0.054943
      py      :     0.047076
  6 C s       :     2.843079  s :     2.843079
      pz      :     0.838579  p :     2.922236
      px      :     1.038888
      py      :     1.044769
      dz2     :     0.014679  d :     0.243847
      dxz     :     0.033557
      dyz     :     0.028015
      dx2y2   :     0.081123
      dxy     :     0.086473
  7 C s       :     2.845700  s :     2.845700
      pz      :     1.034704  p :     3.038175
      px      :     0.966115
      py      :     1.037356
      dz2     :     0.021119  d :     0.113502
      dxz     :     0.019619
      dyz     :     0.013920
      dx2y2   :     0.036882
      dxy     :     0.021961
  8 C s       :     2.839136  s :     2.839136
      pz      :     0.880664  p :     2.960811
      px      :     1.039528
      py      :     1.040619
      dz2     :     0.014260  d :     0.244767
      dxz     :     0.030161
      dyz     :     0.031145
      dx2y2   :     0.089474
      dxy     :     0.079728
  9 C s       :     2.846734  s :     2.846734
      pz      :     1.037845  p :     3.035700
      px      :     1.016376
      py      :     0.981479
      dz2     :     0.021202  d :     0.115293
      dxz     :     0.016390
      dyz     :     0.019234
      dx2y2   :     0.025842
      dxy     :     0.032625
 10 C s       :     2.827043  s :     2.827043
      pz      :     0.928592  p :     2.902073
      px      :     1.033782
      py      :     0.939699
      dz2     :     0.015938  d :     0.243825
      dxz     :     0.033278
      dyz     :     0.028303
      dx2y2   :     0.071300
      dxy     :     0.095006
 11 H s       :     0.858646  s :     0.858646
      pz      :     0.048516  p :     0.082316
      px      :     0.016460
      py      :     0.017340
 12 H s       :     0.863115  s :     0.863115
      pz      :     0.025610  p :     0.081523
      px      :     0.015804
      py      :     0.040110
 13 H s       :     0.863017  s :     0.863017
      pz      :     0.025147  p :     0.081557
      px      :     0.016303
      py      :     0.040107
 14 H s       :     0.832987  s :     0.832987
      pz      :     0.018575  p :     0.087465
      px      :     0.024450
      py      :     0.044440
 15 H s       :     0.851236  s :     0.851236
      pz      :     0.045299  p :     0.082964
      px      :     0.019920
      py      :     0.017745
 16 H s       :     0.865248  s :     0.865248
      pz      :     0.024245  p :     0.085807
      px      :     0.019838
      py      :     0.041724
 17 H s       :     0.854388  s :     0.854388
      pz      :     0.024595  p :     0.084207
      px      :     0.019026
      py      :     0.040586
 18 H s       :     0.854103  s :     0.854103
      pz      :     0.045954  p :     0.082826
      px      :     0.018015
      py      :     0.018857
 19 H s       :     0.865887  s :     0.865887
      pz      :     0.024041  p :     0.081894
      px      :     0.025722
      py      :     0.032131
 20 H s       :     0.864357  s :     0.864357
      pz      :     0.024591  p :     0.085896
      px      :     0.043539
      py      :     0.017766
 21 H s       :     0.838034  s :     0.838034
      pz      :     0.018376  p :     0.086325
      px      :     0.023653
      py      :     0.044296


                      *****************************
                      * MAYER POPULATION ANALYSIS *
                      *****************************

  NA   - Mulliken gross atomic population
  ZA   - Total nuclear charge
  QA   - Mulliken gross atomic charge
  VA   - Mayer's total valence
  BVA  - Mayer's bonded valence
  FA   - Mayer's free valence

  ATOM       NA         ZA         QA         VA         BVA        FA
  0 N      6.5827     7.0000     0.4173     3.6814     3.6814     0.0000
  1 C      6.4272     6.0000    -0.4272     3.8539     3.8539     0.0000
  2 C      6.2302     6.0000    -0.2302     4.0195     4.0195     0.0000
  3 C      5.8900     6.0000     0.1100     4.1408     4.1408     0.0000
  4 O      8.3461     8.0000    -0.3461     2.1202     2.1202     0.0000
  5 H      0.6857     1.0000     0.3143     0.9282     0.9282     0.0000
  6 C      5.8039     6.0000     0.1961     4.0496     4.0496    -0.0000
  7 C      6.5434     6.0000    -0.5434     3.8282     3.8282     0.0000
  8 C      5.6513     6.0000     0.3487     3.9336     3.9336    -0.0000
  9 C      6.5358     6.0000    -0.5358     3.8351     3.8351    -0.0000
 10 C      6.3243     6.0000    -0.3243     4.1354     4.1354    -0.0000
 11 H      0.7823     1.0000     0.2177     0.9410     0.9410    -0.0000
 12 H      0.8165     1.0000     0.1835     0.9603     0.9603    -0.0000
 13 H      0.8163     1.0000     0.1837     0.9604     0.9604     0.0000
 14 H      0.8224     1.0000     0.1776     0.9529     0.9529     0.0000
 15 H      0.8011     1.0000     0.1989     0.9566     0.9566    -0.0000
 16 H      0.8387     1.0000     0.1613     0.9798     0.9798     0.0000
 17 H      0.8025     1.0000     0.1975     0.9580     0.9580     0.0000
 18 H      0.8005     1.0000     0.1995     0.9557     0.9557    -0.0000
 19 H      0.8341     1.0000     0.1659     0.9684     0.9684     0.0000
 20 H      0.8348     1.0000     0.1652     0.9790     0.9790     0.0000
 21 H      0.8302     1.0000     0.1698     0.9577     0.9577    -0.0000

  Mayer bond orders larger than 0.100000
B(  0-N ,  1-C ) :   0.9238 B(  0-N ,  2-C ) :   1.3740 B(  0-N , 10-C ) :   1.3849 
B(  1-C , 11-H ) :   0.9337 B(  1-C , 12-H ) :   0.9522 B(  1-C , 13-H ) :   0.9516 
B(  2-C ,  3-C ) :   1.4121 B(  2-C , 10-C ) :   0.1144 B(  2-C , 14-H ) :   0.9294 
B(  3-C ,  4-O ) :   1.1108 B(  3-C ,  6-C ) :   1.4157 B(  3-C ,  8-C ) :   0.1076 
B(  4-O ,  5-H ) :   0.8960 B(  6-C ,  7-C ) :   0.8936 B(  6-C ,  8-C ) :   1.5172 
B(  6-C , 10-C ) :   0.1183 B(  7-C , 15-H ) :   0.9335 B(  7-C , 16-H ) :   0.9542 
B(  7-C , 17-H ) :   0.9585 B(  8-C ,  9-C ) :   0.8846 B(  8-C , 10-C ) :   1.4297 
B(  9-C , 18-H ) :   0.9392 B(  9-C , 19-H ) :   0.9708 B(  9-C , 20-H ) :   0.9551 
B( 10-C , 21-H ) :   0.9249 

-------
TIMINGS
-------

Total SCF time: 0 days 0 hours 0 min 27 sec 

Total time                  ....      27.549 sec
Sum of individual times     ....      25.888 sec  ( 94.0%)

Fock matrix formation       ....      23.108 sec  ( 83.9%)
  Split-RI-J                ....       2.782 sec  ( 12.0% of F)
  Chain of spheres X        ....      10.622 sec  ( 46.0% of F)
  XC integration            ....       7.306 sec  ( 31.6% of F)
    Basis function eval.    ....       0.529 sec  (  7.2% of XC)
    Density eval.           ....       0.408 sec  (  5.6% of XC)
    XC-Functional eval.     ....       0.130 sec  (  1.8% of XC)
    XC-Potential eval.      ....       0.470 sec  (  6.4% of XC)
Diagonalization             ....       0.196 sec  (  0.7%)
Density matrix formation    ....       0.034 sec  (  0.1%)
Population analysis         ....       0.098 sec  (  0.4%)
Initial guess               ....       0.342 sec  (  1.2%)
Orbital Transformation      ....       0.000 sec  (  0.0%)
Orbital Orthonormalization  ....       0.000 sec  (  0.0%)
DIIS solution               ....       0.242 sec  (  0.9%)
SOSCF solution              ....       0.197 sec  (  0.7%)
Grid generation             ....       1.670 sec  (  6.1%)

Maximum memory used throughout the entire SCF-calculation: 63.2 MB

-------------------------   --------------------
FINAL SINGLE POINT ENERGY      -441.627957658364
-------------------------   --------------------



           ************************************************************
           *        Program running with 16 parallel MPI-processes    *
           *              working on a common directory               *
           ************************************************************
------------------------------------------------------------------------------
                         ORCA SCF GRADIENT CALCULATION
------------------------------------------------------------------------------

 ... reading COSX grid (gridx3)
Gradient of the Kohn-Sham DFT energy:
Kohn-Sham wavefunction type      ... RKS
Hartree-Fock exchange scaling    ...    0.200
Number of operators              ...    1
Number of atoms                  ...   22
Basis set dimensions             ...  254
Integral neglect threshold       ... 2.5e-11
Integral primitive cutoff        ... 2.5e-12
SHARK Integral package           ... ON

Nuc. rep. gradient       (SHARK) ... done (  0.0 sec)
HCore & Overlap gradient (SHARK) ... done (  0.0 sec)
RI-J gradient            (SHARK) ... done (  0.4 sec)
COSX-gradient                    ... done (  2.1 sec)
Exchange-correlation gradient    ... done

------------------
CARTESIAN GRADIENT
------------------

   1   N   :    0.032634372    0.001387107   -0.003052882
   2   C   :    0.013513128   -0.000340386    0.000437032
   3   C   :   -0.014422433   -0.037253587    0.001941977
   4   C   :   -0.000428931   -0.009018634   -0.011604249
   5   O   :    0.001221395   -0.009819576    0.007604701
   6   H   :    0.001323514    0.003187486   -0.000672973
   7   C   :   -0.025872448   -0.003955473    0.001974338
   8   C   :    0.005287437   -0.004981179    0.007258611
   9   C   :   -0.003707285    0.020103887    0.001406316
  10   C   :    0.007576315   -0.000172845    0.003931415
  11   C   :   -0.014947288    0.031680977    0.001194862
  12   H   :    0.000983185   -0.000052905    0.001724076
  13   H   :    0.000082410   -0.000547380   -0.000235509
  14   H   :    0.000294205    0.000520710   -0.000192832
  15   H   :    0.004411007   -0.000641062    0.000081672
  16   H   :   -0.004142243    0.000532493   -0.002761584
  17   H   :   -0.005115760   -0.004220756   -0.002340266
  18   H   :   -0.002822576   -0.000853915   -0.002031484
  19   H   :   -0.003012719    0.003326182   -0.001986156
  20   H   :   -0.001532439    0.004345949   -0.001070465
  21   H   :    0.002014024    0.007453769   -0.001417913
  22   H   :    0.006623962   -0.000779034   -0.000047411

Difference to translation invariance:
           :   -0.0000391676   -0.0000981710    0.0001412755

Difference to rotation invariance:
           :   -0.0003006922   -0.0002748989   -0.0002606417

Norm of the cartesian gradient     ...    0.0776096145
RMS gradient                       ...    0.0095530832
MAX gradient                       ...    0.0372535868

-------
TIMINGS
-------

Total SCF gradient time            ...        4.156 sec

One electron gradient       ....       0.047 sec  (  1.1%)
RI-J Coulomb gradient       ....       0.376 sec  (  9.0%)
COSX gradient               ....       2.079 sec  ( 50.0%)
XC gradient                 ....       0.947 sec  ( 22.8%)

Maximum memory used throughout the entire SCFGRAD-calculation: 49.8 MB
------------------------------------------------------------------------------
                         ORCA GEOMETRY RELAXATION STEP
------------------------------------------------------------------------------

Reading the OPT-File                    .... done
Getting information on internals        .... done
Copying old internal coords+grads       .... done
Making the new internal coordinates     .... (new redundants).... done
Validating the new internal coordinates .... (new redundants).... done
Calculating the B-matrix                .... done
Calculating the G,G- and P matrices     .... done
Transforming gradient to internals      .... done
Projecting the internal gradient        .... done
Number of atoms                         ....  22
Number of internal coordinates          .... 103
Current Energy                          ....  -441.627957658 Eh
Current gradient norm                   ....     0.077609615 Eh/bohr
Maximum allowed component of the step   ....  0.300
Current trust radius                    ....  0.300
Evaluating the initial hessian          ....  (Almloef) done
Projecting the Hessian                  .... done
Forming the augmented Hessian           .... done
Diagonalizing the augmented Hessian     .... done
Last element of RFO vector              ....  0.969361663
Lowest eigenvalues of augmented Hessian:
 -0.016020139  0.012249402  0.012702130  0.015379377  0.021264346
Length of the computed step             ....  0.253401682
The final length of the internal step   ....  0.253401682
Converting the step to cartesian space:
 Initial RMS(Int)=    0.0249684097
Transforming coordinates:
 Iter   0:  RMS(Cart)=    0.0844360651 RMS(Int)=    1.6322421665
 Iter   1:  RMS(Cart)=    0.0022419777 RMS(Int)=    0.0014333953
 Iter   2:  RMS(Cart)=    0.0001725899 RMS(Int)=    0.0000726574
 Iter   3:  RMS(Cart)=    0.0000126243 RMS(Int)=    0.0000094278
 Iter   4:  RMS(Cart)=    0.0000010649 RMS(Int)=    0.0000005168
 Iter   5:  RMS(Cart)=    0.0000000844 RMS(Int)=    0.0000000680
done
Storing new coordinates                 .... done

                                .--------------------.
          ----------------------|Geometry convergence|-------------------------
          Item                value                   Tolerance       Converged
          ---------------------------------------------------------------------
          RMS gradient        0.0090228440            0.0001000000      NO
          MAX gradient        0.0430249882            0.0003000000      NO
          RMS step            0.0249684097            0.0020000000      NO
          MAX step            0.0661528814            0.0040000000      NO
          ........................................................
          Max(Bonds)      0.0349      Max(Angles)    2.95
          Max(Dihed)        3.79      Max(Improp)    0.00
          ---------------------------------------------------------------------

The optimization has not yet converged - more geometry cycles are needed


    ---------------------------------------------------------------------------
                         Redundant Internal Coordinates
                            (Angstroem and degrees)

        Definition                    Value    dE/dq     Step     New-Value
[...]
 216   0.0000       4.925240       134.0226 
 217   0.0000       4.964677       135.0957 
 218   0.0000       5.050878       137.4414 
 219   0.0000       5.095362       138.6518 
 220   0.0000       5.161557       140.4531 
 221   0.0000       5.201924       141.5515 
 222   0.0000       5.268921       143.3746 
 223   0.0000       5.310703       144.5116 
 224   0.0000       5.340737       145.3288 
 225   0.0000       5.420367       147.4957 
 226   0.0000       5.474188       148.9602 
 227   0.0000       5.497529       149.5954 
 228   0.0000       5.552673       151.0959 
 229   0.0000       5.776330       157.1819 
 230   0.0000       7.096969       193.1183 
 231   0.0000       8.912703       242.5270 
 232   0.0000      29.536173       803.7201 
 233   0.0000      29.701414       808.2166 
 234   0.0000      29.749840       809.5343 
 235   0.0000      29.829165       811.6928 
 236   0.0000      29.855139       812.3996 
 237   0.0000      29.915937       814.0540 
 238   0.0000      29.957038       815.1724 
 239   0.0000      30.092167       818.8495 
 240   0.0000      36.413964       990.8743 
 241   0.0000      36.451214       991.8880 
 242   0.0000      36.455717       992.0105 
 243   0.0000      36.467508       992.3313 
 244   0.0000      36.485398       992.8182 
 245   0.0000      36.522862       993.8376 
 246   0.0000      36.553467       994.6704 
 247   0.0000      36.629223       996.7318 
 248   0.0000      36.667750       997.7802 
 249   0.0000      36.729716       999.4664 
 250   0.0000      36.795085      1001.2452 
 251   0.0000      36.845305      1002.6117 
 252   0.0000      41.020693      1116.2298 
 253   0.0000      53.456235      1454.6181 

                    ********************************
                    * MULLIKEN POPULATION ANALYSIS *
                    ********************************

-----------------------
MULLIKEN ATOMIC CHARGES
-----------------------
   0 N :    0.341398
   1 C :   -0.416991
   2 C :   -0.215481
   3 C :    0.148854
   4 O :   -0.283063
   5 H :    0.305123
   6 C :    0.200113
   7 C :   -0.599605
   8 C :    0.338021
   9 C :   -0.574166
  10 C :   -0.306858
  11 H :    0.217861
  12 H :    0.183256
  13 H :    0.188751
  14 H :    0.181492
  15 H :    0.195360
  16 H :    0.191247
  17 H :    0.188553
  18 H :    0.192294
  19 H :    0.166967
  20 H :    0.192742
  21 H :    0.164133
Sum of atomic charges:    1.0000000

--------------------------------
MULLIKEN REDUCED ORBITAL CHARGES
--------------------------------
  0 N s       :     3.260260  s :     3.260260
      pz      :     1.350629  p :     3.345835
      px      :     1.016793
      py      :     0.978412
      dz2     :     0.002883  d :     0.052507
      dxz     :     0.006034
      dyz     :     0.010852
      dx2y2   :     0.015737
      dxy     :     0.017001
  1 C s       :     3.227268  s :     3.227268
      pz      :     1.175381  p :     3.108022
      px      :     0.771377
      py      :     1.161264
      dz2     :     0.017835  d :     0.081701
      dxz     :     0.014296
      dyz     :     0.012319
      dx2y2   :     0.023459
      dxy     :     0.013792
  2 C s       :     3.183905  s :     3.183905
      pz      :     0.986141  p :     2.943770
      px      :     1.000304
      py      :     0.957324
      dz2     :     0.005697  d :     0.087806
      dxz     :     0.011433
      dyz     :     0.011559
      dx2y2   :     0.028306
      dxy     :     0.030811
  3 C s       :     3.062168  s :     3.062168
      pz      :     0.934276  p :     2.648424
      px      :     0.913551
      py      :     0.800597
      dz2     :     0.007618  d :     0.140554
      dxz     :     0.014948
      dyz     :     0.029845
      dx2y2   :     0.048240
      dxy     :     0.039903
  4 O s       :     3.807037  s :     3.807037
      pz      :     1.777058  p :     4.458300
      px      :     1.319567
      py      :     1.361675
      dz2     :     0.002677  d :     0.017726
      dxz     :     0.000468
      dyz     :     0.002821
      dx2y2   :     0.008837
      dxy     :     0.002922
  5 H s       :     0.633335  s :     0.633335
      pz      :     0.020519  p :     0.061542
      px      :     0.024460
      py      :     0.016562
  6 C s       :     3.065809  s :     3.065809
      pz      :     0.931792  p :     2.654063
      px      :     0.847639
      py      :     0.874633
      dz2     :     0.004561  d :     0.080015
      dxz     :     0.013026
      dyz     :     0.009503
      dx2y2   :     0.022790
      dxy     :     0.030136
  7 C s       :     3.266189  s :     3.266189
      pz      :     1.114123  p :     3.268059
      px      :     0.961142
      py      :     1.192793
      dz2     :     0.013190  d :     0.065357
      dxz     :     0.010736
      dyz     :     0.013665
      dx2y2   :     0.014673
      dxy     :     0.013092
  8 C s       :     3.051196  s :     3.051196
      pz      :     0.908035  p :     2.527410
      px      :     0.821319
      py      :     0.798056
      dz2     :     0.004468  d :     0.083373
      dxz     :     0.011399
      dyz     :     0.012143
      dx2y2   :     0.030379
      dxy     :     0.024984
  9 C s       :     3.255446  s :     3.255446
      pz      :     1.130905  p :     3.252691
      px      :     1.129986
      py      :     0.991799
      dz2     :     0.013280  d :     0.066029
      dxz     :     0.019981
      dyz     :     0.004665
      dx2y2   :     0.008932
      dxy     :     0.019171
 10 C s       :     3.221530  s :     3.221530
      pz      :     0.980512  p :     2.991891
      px      :     1.012914
      py      :     0.998465
      dz2     :     0.005753  d :     0.093437
      dxz     :     0.012214
      dyz     :     0.010563
      dx2y2   :     0.026789
      dxy     :     0.038116
 11 H s       :     0.763907  s :     0.763907
      pz      :     0.010224  p :     0.018232
      px      :     0.003414
      py      :     0.004594
 12 H s       :     0.798153  s :     0.798153
      pz      :     0.005466  p :     0.018591
      px      :     0.003966
      py      :     0.009160
 13 H s       :     0.792720  s :     0.792720
      pz      :     0.006528  p :     0.018530
      px      :     0.004140
      py      :     0.007862
 14 H s       :     0.796578  s :     0.796578
      pz      :     0.005610  p :     0.021930
      px      :     0.006267
      py      :     0.010054
 15 H s       :     0.784973  s :     0.784973
      pz      :     0.008884  p :     0.019668
      px      :     0.005590
      py      :     0.005194
 16 H s       :     0.789094  s :     0.789094
      pz      :     0.004482  p :     0.019659
      px      :     0.005791
      py      :     0.009385
 17 H s       :     0.791734  s :     0.791734
      pz      :     0.007926  p :     0.019713
      px      :     0.005839
      py      :     0.005948
 18 H s       :     0.788271  s :     0.788271
      pz      :     0.008202  p :     0.019435
      px      :     0.006395
      py      :     0.004838
 19 H s       :     0.813764  s :     0.813764
      pz      :     0.004427  p :     0.019268
      px      :     0.006394
      py      :     0.008447
 20 H s       :     0.787815  s :     0.787815
      pz      :     0.008234  p :     0.019443
      px      :     0.006559
      py      :     0.004650
 21 H s       :     0.814048  s :     0.814048
      pz      :     0.005779  p :     0.021819
      px      :     0.006216
      py      :     0.009824


                     *******************************
                     * LOEWDIN POPULATION ANALYSIS *
                     *******************************

----------------------
LOEWDIN ATOMIC CHARGES
----------------------
   0 N :    0.152058
   1 C :    0.074743
   2 C :    0.039495
   3 C :   -0.030739
   4 O :    0.064016
   5 H :    0.104786
   6 C :   -0.026013
   7 C :   -0.017646
   8 C :   -0.041902
   9 C :   -0.011196
  10 C :    0.022023
  11 H :    0.059084
  12 H :    0.053978
  13 H :    0.055394
  14 H :    0.080079
  15 H :    0.061829
  16 H :    0.059219
  17 H :    0.059778
  18 H :    0.058894
  19 H :    0.051442
  20 H :    0.059078
  21 H :    0.071600

-------------------------------
LOEWDIN REDUCED ORBITAL CHARGES
-------------------------------
  0 N s       :     3.056619  s :     3.056619
      pz      :     1.282219  p :     3.662535
      px      :     1.178303
      py      :     1.202013
      dz2     :     0.006429  d :     0.128789
      dxz     :     0.012219
      dyz     :     0.025469
      dx2y2   :     0.043152
      dxy     :     0.041519
  1 C s       :     2.856957  s :     2.856957
      pz      :     1.061664  p :     2.926957
      px      :     0.805374
      py      :     1.059920
      dz2     :     0.027347  d :     0.141343
      dxz     :     0.029624
      dyz     :     0.013375
      dx2y2   :     0.049851
      dxy     :     0.021146
  2 C s       :     2.841686  s :     2.841686
      pz      :     0.953860  p :     2.901707
      px      :     1.012964
      py      :     0.934883
      dz2     :     0.015644  d :     0.217112
      dxz     :     0.029348
      dyz     :     0.026642
      dx2y2   :     0.069047
      dxy     :     0.076431
  3 C s       :     2.821619  s :     2.821619
      pz      :     0.910136  p :     2.857290
      px      :     1.028363
      py      :     0.918790
      dz2     :     0.022465  d :     0.351830
      dxz     :     0.036762
      dyz     :     0.068518
      dx2y2   :     0.124598
      dxy     :     0.099488
  4 O s       :     3.423087  s :     3.423087
      pz      :     1.726442  p :     4.486275
      px      :     1.299837
      py      :     1.459996
      dz2     :     0.003794  d :     0.026622
      dxz     :     0.000641
      dyz     :     0.003942
      dx2y2   :     0.012475
      dxy     :     0.005769
  5 H s       :     0.696446  s :     0.696446
      pz      :     0.053936  p :     0.198768
      px      :     0.107491
      py      :     0.037341
  6 C s       :     2.850335  s :     2.850335
      pz      :     0.886986  p :     2.946556
      px      :     1.029554
      py      :     1.030016
      dz2     :     0.014270  d :     0.229121
      dxz     :     0.030751
      dyz     :     0.025318
      dx2y2   :     0.075831
      dxy     :     0.082952
  7 C s       :     2.849291  s :     2.849291
      pz      :     1.033451  p :     3.054660
      px      :     0.971981
      py      :     1.049228
      dz2     :     0.019864  d :     0.113695
      dxz     :     0.021159
      dyz     :     0.015671
      dx2y2   :     0.032079
      dxy     :     0.024921
  8 C s       :     2.851359  s :     2.851359
      pz      :     0.886192  p :     2.956866
      px      :     1.037613
      py      :     1.033061
      dz2     :     0.013970  d :     0.233676
      dxz     :     0.030944
      dyz     :     0.030094
      dx2y2   :     0.084374
      dxy     :     0.074294
  9 C s       :     2.851143  s :     2.851143
      pz      :     1.040432  p :     3.046113
      px      :     1.027091
      py      :     0.978590
      dz2     :     0.019828  d :     0.113940
      dxz     :     0.025662
      dyz     :     0.011242
      dx2y2   :     0.020992
      dxy     :     0.036218
 10 C s       :     2.842189  s :     2.842189
      pz      :     0.950684  p :     2.908294
      px      :     1.023841
      py      :     0.933768
      dz2     :     0.015559  d :     0.227494
      dxz     :     0.031682
      dyz     :     0.024336
      dx2y2   :     0.064596
      dxy     :     0.091321
 11 H s       :     0.859056  s :     0.859056
      pz      :     0.049607  p :     0.081860
      px      :     0.014798
      py      :     0.017456
 12 H s       :     0.864441  s :     0.864441
      pz      :     0.022109  p :     0.081580
      px      :     0.015965
      py      :     0.043507
 13 H s       :     0.862916  s :     0.862916
      pz      :     0.027938  p :     0.081689
      px      :     0.017202
      py      :     0.036549
 14 H s       :     0.831988  s :     0.831988
      pz      :     0.019045  p :     0.087933
      px      :     0.025620
      py      :     0.043267
 15 H s       :     0.856020  s :     0.856020
      pz      :     0.041080  p :     0.082151
      px      :     0.018662
      py      :     0.022409
 16 H s       :     0.856943  s :     0.856943
      pz      :     0.017414  p :     0.083838
      px      :     0.022130
      py      :     0.044294
 17 H s       :     0.858091  s :     0.858091
      pz      :     0.035658  p :     0.082131
      px      :     0.019675
      py      :     0.026797
 18 H s       :     0.859302  s :     0.859302
      pz      :     0.038397  p :     0.081804
      px      :     0.027309
      py      :     0.016098
 19 H s       :     0.867435  s :     0.867435
      pz      :     0.017143  p :     0.081123
      px      :     0.029234
      py      :     0.034746
 20 H s       :     0.859142  s :     0.859142
      pz      :     0.038200  p :     0.081781
      px      :     0.028193
      py      :     0.015388
 21 H s       :     0.842033  s :     0.842033
      pz      :     0.019272  p :     0.086367
      px      :     0.024474
      py      :     0.042621


                      *****************************
                      * MAYER POPULATION ANALYSIS *
                      *****************************

  NA   - Mulliken gross atomic population
  ZA   - Total nuclear charge
  QA   - Mulliken gross atomic charge
  VA   - Mayer's total valence
  BVA  - Mayer's bonded valence
  FA   - Mayer's free valence

  ATOM       NA         ZA         QA         VA         BVA        FA
  0 N      6.6586     7.0000     0.3414     3.6298     3.6298    -0.0000
  1 C      6.4170     6.0000    -0.4170     3.8457     3.8457     0.0000
  2 C      6.2155     6.0000    -0.2155     4.0102     4.0102    -0.0000
  3 C      5.8511     6.0000     0.1489     4.1246     4.1246    -0.0000
  4 O      8.2831     8.0000    -0.2831     2.2118     2.2118    -0.0000
  5 H      0.6949     1.0000     0.3051     0.9448     0.9448    -0.0000
  6 C      5.7999     6.0000     0.2001     3.8912     3.8912    -0.0000
  7 C      6.5996     6.0000    -0.5996     3.8150     3.8150     0.0000
  8 C      5.6620     6.0000     0.3380     3.9413     3.9413    -0.0000
  9 C      6.5742     6.0000    -0.5742     3.8610     3.8610    -0.0000
 10 C      6.3069     6.0000    -0.3069     4.1402     4.1402     0.0000
 11 H      0.7821     1.0000     0.2179     0.9406     0.9406     0.0000
 12 H      0.8167     1.0000     0.1833     0.9608     0.9608     0.0000
 13 H      0.8112     1.0000     0.1888     0.9580     0.9580     0.0000
 14 H      0.8185     1.0000     0.1815     0.9508     0.9508     0.0000
 15 H      0.8046     1.0000     0.1954     0.9548     0.9548     0.0000
 16 H      0.8088     1.0000     0.1912     0.9682     0.9682    -0.0000
 17 H      0.8114     1.0000     0.1886     0.9570     0.9570    -0.0000
 18 H      0.8077     1.0000     0.1923     0.9558     0.9558     0.0000
 19 H      0.8330     1.0000     0.1670     0.9693     0.9693     0.0000
 20 H      0.8073     1.0000     0.1927     0.9556     0.9556     0.0000
 21 H      0.8359     1.0000     0.1641     0.9597     0.9597    -0.0000

  Mayer bond orders larger than 0.100000
B(  0-N ,  1-C ) :   0.9110 B(  0-N ,  2-C ) :   1.3670 B(  0-N , 10-C ) :   1.3633 
B(  1-C , 11-H ) :   0.9348 B(  1-C , 12-H ) :   0.9527 B(  1-C , 13-H ) :   0.9509 
B(  2-C ,  3-C ) :   1.3835 B(  2-C , 10-C ) :   0.1222 B(  2-C , 14-H ) :   0.9323 
B(  3-C ,  4-O ) :   1.1937 B(  3-C ,  6-C ) :   1.3304 B(  4-O ,  5-H ) :   0.8943 
B(  6-C ,  7-C ) :   0.8508 B(  6-C ,  8-C ) :   1.5088 B(  6-C , 10-C ) :   0.1017 
B(  7-C , 15-H ) :   0.9488 B(  7-C , 16-H ) :   0.9483 B(  7-C , 17-H ) :   0.9521 
B(  8-C ,  9-C ) :   0.8872 B(  8-C , 10-C ) :   1.4352 B(  9-C , 18-H ) :   0.9481 
B(  9-C , 19-H ) :   0.9701 B(  9-C , 20-H ) :   0.9474 B( 10-C , 21-H ) :   0.9315 


-------
TIMINGS
-------

Total SCF time: 0 days 0 hours 0 min 16 sec 

Total time                  ....      16.424 sec
Sum of individual times     ....      14.878 sec  ( 90.6%)

Fock matrix formation       ....      12.982 sec  ( 79.0%)
  Split-RI-J                ....       1.418 sec  ( 10.9% of F)
  Chain of spheres X        ....       6.886 sec  ( 53.0% of F)
  XC integration            ....       3.580 sec  ( 27.6% of F)
    Basis function eval.    ....       0.277 sec  (  7.7% of XC)
    Density eval.           ....       0.197 sec  (  5.5% of XC)
    XC-Functional eval.     ....       0.066 sec  (  1.9% of XC)
    XC-Potential eval.      ....       0.179 sec  (  5.0% of XC)
Diagonalization             ....       0.030 sec  (  0.2%)
Density matrix formation    ....       0.030 sec  (  0.2%)
Population analysis         ....       0.107 sec  (  0.7%)
Initial guess               ....       0.029 sec  (  0.2%)
Orbital Transformation      ....       0.000 sec  (  0.0%)
Orbital Orthonormalization  ....       0.017 sec  (  0.1%)
DIIS solution               ....       0.005 sec  (  0.0%)
SOSCF solution              ....       0.155 sec  (  0.9%)
Grid generation             ....       1.540 sec  (  9.4%)

Maximum memory used throughout the entire SCF-calculation: 63.3 MB

-------------------------   --------------------
FINAL SINGLE POINT ENERGY      -441.644370116123
-------------------------   --------------------

                                *** OPTIMIZATION RUN DONE ***

                            ***************************************
                            *     ORCA property calculations      *
                            ***************************************

                                    ---------------------
                                    Active property flags
                                    ---------------------
   (+) Dipole Moment


------------------------------------------------------------------------------
                       ORCA ELECTRIC PROPERTIES CALCULATION
------------------------------------------------------------------------------

Dipole Moment Calculation                       ... on
Quadrupole Moment Calculation                   ... off
Polarizability Calculation                      ... off
GBWName                                         ... opt_EPRII.gbw
Electron density                                ... opt_EPRII.scfp
The origin for moment calculation is the CENTER OF MASS  = (-0.067400,  0.026922  0.108505)

-------------
DIPOLE MOMENT
-------------
                                X             Y             Z
Electronic contribution:     -1.78594       5.36615       0.35099
Nuclear contribution   :      1.25212      -5.86288      -0.41925
                        -----------------------------------------
Total Dipole Moment    :     -0.53382      -0.49674      -0.06826
                        -----------------------------------------
Magnitude (a.u.)       :      0.73237
Magnitude (Debye)      :      1.86154



--------------------
Rotational spectrum 
--------------------
 
Rotational constants in cm-1:     0.057854     0.042311     0.024783 
Rotational constants in MHz :  1734.407415  1268.453355   742.965296 

 Dipole components along the rotational axes: 
x,y,z [a.u.] :    -0.541879    -0.492244    -0.020762 
x,y,z [Debye]:    -1.377346    -1.251185    -0.052772 

 

Timings for individual modules:

Sum of individual times         ...      831.984 sec (=  13.866 min)
GTO integral calculation        ...       62.363 sec (=   1.039 min)   7.5 %
SCF iterations                  ...      616.284 sec (=  10.271 min)  74.1 %
SCF Gradient evaluation         ...      150.096 sec (=   2.502 min)  18.0 %
Geometry relaxation             ...        3.241 sec (=   0.054 min)   0.4 %
                             ****ORCA TERMINATED NORMALLY****
TOTAL RUN TIME: 0 days 0 hours 15 minutes 19 seconds 979 msec
